<PP_INFO>
Generated using Vanderbilt code, version   7  3  2                              
Author: Yi Yao    Generation date:    0    0    0                               
Automatically converted from original format                                    
    0        The Pseudo was generated with a Non-Relativistic Calculation
nl pn  l   occ               Rcut            Rcut US             E pseu
0S  0  0  2.00      0.00000000000      0.00000000000      0.00000000000
0P  0  1  1.00      0.00000000000      0.00000000000      0.00000000000
0D  0  2  0.00      0.00000000000      0.00000000000      0.00000000000
</PP_INFO>


<PP_HEADER>
   0                   Version Number
  Al                   Element
   NC                  Norm - Conserving pseudopotential
    F                  Nonlinear Core Correction
 SLA  PW   SCAN SCAN   SCAN Exchange-Correlation functional
    3.00000000000      Z valence
    0.00000000000      Total energy
    0.00000    0.00000 Suggested cutoff for wfc and rho
    1                  Max angular momentum component
 1467                  Number of points in mesh
    3    2             Number of Wavefunctions, Number of Projectors
 Wavefunctions         nl  l   occ
                       0S  0  2.00
                       0P  1  1.00
                       0D  2  0.00
</PP_HEADER>


<PP_MESH>
  <PP_R>
  2.58048175310E-05  2.60641602587E-05  2.63261094242E-05  2.65906912226E-05
  2.68579321123E-05  2.71278588176E-05  2.74004983313E-05  2.76758779177E-05
  2.79540251150E-05  2.82349677381E-05  2.85187338815E-05  2.88053519220E-05
  2.90948505217E-05  2.93872586308E-05  2.96826054902E-05  2.99809206348E-05
  3.02822338965E-05  3.05865754069E-05  3.08939756003E-05  3.12044652169E-05
  3.15180753061E-05  3.18348372291E-05  3.21547826624E-05  3.24779436007E-05
  3.28043523604E-05  3.31340415827E-05  3.34670442368E-05  3.38033936232E-05
  3.41431233771E-05  3.44862674719E-05  3.48328602221E-05  3.51829362873E-05
  3.55365306755E-05  3.58936787464E-05  3.62544162151E-05  3.66187791556E-05
  3.69868040045E-05  3.73585275646E-05  3.77339870087E-05  3.81132198829E-05
  3.84962641108E-05  3.88831579972E-05  3.92739402319E-05  3.96686498933E-05
  4.00673264527E-05  4.04700097782E-05  4.08767401383E-05  4.12875582066E-05
  4.17025050650E-05  4.21216222088E-05  4.25449515498E-05  4.29725354215E-05
  4.34044165825E-05  4.38406382214E-05  4.42812439606E-05  4.47262778611E-05
  4.51757844266E-05  4.56298086083E-05  4.60883958088E-05  4.65515918873E-05
  4.70194431638E-05  4.74919964238E-05  4.79692989230E-05  4.84513983921E-05
  4.89383430414E-05  4.94301815658E-05  4.99269631495E-05  5.04287374712E-05
  5.09355547086E-05  5.14474655440E-05  5.19645211688E-05  5.24867732890E-05
  5.30142741302E-05  5.35470764431E-05  5.40852335082E-05  5.46287991417E-05
  5.51778277007E-05  5.57323740885E-05  5.62924937600E-05  5.68582427279E-05
  5.74296775674E-05  5.80068554226E-05  5.85898340116E-05  5.91786716329E-05
  5.97734271706E-05  6.03741601008E-05  6.09809304974E-05  6.15937990379E-05
  6.22128270095E-05  6.28380763158E-05  6.34696094820E-05  6.41074896621E-05
  6.47517806445E-05  6.54025468590E-05  6.60598533826E-05  6.67237659467E-05
  6.73943509429E-05  6.80716754304E-05  6.87558071422E-05  6.94468144920E-05
  7.01447665811E-05  7.08497332053E-05  7.15617848619E-05  7.22809927566E-05
  7.30074288108E-05  7.37411656688E-05  7.44822767047E-05  7.52308360304E-05
  7.59869185024E-05  7.67505997296E-05  7.75219560807E-05  7.83010646920E-05
  7.90880034750E-05  7.98828511243E-05  8.06856871252E-05  8.14965917621E-05
  8.23156461261E-05  8.31429321233E-05  8.39785324830E-05  8.48225307660E-05
  8.56750113727E-05  8.65360595519E-05  8.74057614092E-05  8.82842039155E-05
  8.91714749157E-05  9.00676631378E-05  9.09728582012E-05  9.18871506262E-05
  9.28106318429E-05  9.37433942001E-05  9.46855309749E-05  9.56371363816E-05
  9.65983055817E-05  9.75691346929E-05  9.85497207988E-05  9.95401619589E-05
  1.00540557218E-04  1.01551006617E-04  1.02571611201E-04  1.03602473032E-04
  1.04643695196E-04  1.05695381817E-04  1.06757638064E-04  1.07830570164E-04
  1.08914285411E-04  1.10008892178E-04  1.11114499925E-04  1.12231219214E-04
  1.13359161720E-04  1.14498440235E-04  1.15649168691E-04  1.16811462159E-04
  1.17985436871E-04  1.19171210225E-04  1.20368900800E-04  1.21578628364E-04
  1.22800513893E-04  1.24034679576E-04  1.25281248830E-04  1.26540346313E-04
  1.27812097936E-04  1.29096630876E-04  1.30394073586E-04  1.31704555813E-04
  1.33028208604E-04  1.34365164328E-04  1.35715556680E-04  1.37079520700E-04
  1.38457192787E-04  1.39848710708E-04  1.41254213618E-04  1.42673842066E-04
  1.44107738017E-04  1.45556044862E-04  1.47018907433E-04  1.48496472018E-04
  1.49988886373E-04  1.51496299742E-04  1.53018862867E-04  1.54556728005E-04
  1.56110048946E-04  1.57678981021E-04  1.59263681126E-04  1.60864307732E-04
  1.62481020903E-04  1.64113982311E-04  1.65763355254E-04  1.67429304670E-04
  1.69111997157E-04  1.70811600984E-04  1.72528286114E-04  1.74262224216E-04
  1.76013588686E-04  1.77782554662E-04  1.79569299041E-04  1.81374000499E-04
  1.83196839509E-04  1.85037998355E-04  1.86897661156E-04  1.88776013878E-04
  1.90673244359E-04  1.92589542323E-04  1.94525099402E-04  1.96480109153E-04
  1.98454767079E-04  2.00449270647E-04  2.02463819309E-04  2.04498614521E-04
  2.06553859766E-04  2.08629760568E-04  2.10726524521E-04  2.12844361301E-04
  2.14983482695E-04  2.17144102617E-04  2.19326437129E-04  2.21530704468E-04
  2.23757125063E-04  2.26005921556E-04  2.28277318829E-04  2.30571544025E-04
  2.32888826567E-04  2.35229398186E-04  2.37593492941E-04  2.39981347243E-04
  2.42393199880E-04  2.44829292039E-04  2.47289867331E-04  2.49775171816E-04
  2.52285454026E-04  2.54820964992E-04  2.57381958267E-04  2.59968689952E-04
  2.62581418723E-04  2.65220405854E-04  2.67885915247E-04  2.70578213455E-04
  2.73297569709E-04  2.76044255949E-04  2.78818546844E-04  2.81620719825E-04
  2.84451055114E-04  2.87309835745E-04  2.90197347599E-04  2.93113879430E-04
  2.96059722893E-04  2.99035172575E-04  3.02040526024E-04  3.05076083776E-04
  3.08142149392E-04  3.11239029479E-04  3.14367033728E-04  3.17526474943E-04
  3.20717669070E-04  3.23940935231E-04  3.27196595755E-04  3.30484976212E-04
  3.33806405441E-04  3.37161215590E-04  3.40549742141E-04  3.43972323950E-04
  3.47429303278E-04  3.50921025826E-04  3.54447840769E-04  3.58010100791E-04
  3.61608162122E-04  3.65242384570E-04  3.68913131561E-04  3.72620770173E-04
  3.76365671172E-04  3.80148209052E-04  3.83968762070E-04  3.87827712284E-04
  3.91725445592E-04  3.95662351772E-04  3.99638824516E-04  4.03655261475E-04
  4.07712064298E-04  4.11809638666E-04  4.15948394342E-04  4.20128745203E-04
  4.24351109289E-04  4.28615908840E-04  4.32923570339E-04  4.37274524555E-04
  4.41669206589E-04  4.46108055911E-04  4.50591516410E-04  4.55120036437E-04
  4.59694068847E-04  4.64314071046E-04  4.68980505040E-04  4.73693837475E-04
  4.78454539688E-04  4.83263087754E-04  4.88119962531E-04  4.93025649712E-04
  4.97980639868E-04  5.02985428504E-04  5.08040516101E-04  5.13146408173E-04
  5.18303615314E-04  5.23512653249E-04  5.28774042884E-04  5.34088310365E-04
  5.39455987122E-04  5.44877609927E-04  5.50353720947E-04  5.55884867798E-04
  5.61471603599E-04  5.67114487028E-04  5.72814082379E-04  5.78570959615E-04
  5.84385694429E-04  5.90258868300E-04  5.96191068549E-04  6.02182888402E-04
  6.08234927046E-04  6.14347789689E-04  6.20522087623E-04  6.26758438283E-04
  6.33057465309E-04  6.39419798609E-04  6.45846074422E-04  6.52336935381E-04
  6.58893030577E-04  6.65515015625E-04  6.72203552729E-04  6.78959310748E-04
  6.85782965265E-04  6.92675198649E-04  6.99636700130E-04  7.06668165865E-04
  7.13770299005E-04  7.20943809770E-04  7.28189415516E-04  7.35507840811E-04
  7.42899817503E-04  7.50366084796E-04  7.57907389322E-04  7.65524485219E-04
  7.73218134203E-04  7.80989105644E-04  7.88838176646E-04  7.96766132124E-04
  8.04773764879E-04  8.12861875681E-04  8.21031273348E-04  8.29282774826E-04
  8.37617205273E-04  8.46035398139E-04  8.54538195249E-04  8.63126446891E-04
  8.71801011897E-04  8.80562757731E-04  8.89412560575E-04  8.98351305415E-04
  9.07379886135E-04  9.16499205599E-04  9.25710175748E-04  9.35013717686E-04
  9.44410761774E-04  9.53902247726E-04  9.63489124698E-04  9.73172351385E-04
  9.82952896118E-04  9.92831736960E-04  1.00280986180E-03  1.01288826847E-03
  1.02306796480E-03  1.03334996879E-03  1.04373530863E-03  1.05422502287E-03
  1.06482016050E-03  1.07552178103E-03  1.08633095463E-03  1.09724876223E-03
  1.10827629562E-03  1.11941465757E-03  1.13066496192E-03  1.14202833370E-03
  1.15350590927E-03  1.16509883639E-03  1.17680827436E-03  1.18863539415E-03
  1.20058137846E-03  1.21264742191E-03  1.22483473112E-03  1.23714452481E-03
  1.24957803400E-03  1.26213650202E-03  1.27482118475E-03  1.28763335066E-03
  1.30057428098E-03  1.31364526981E-03  1.32684762426E-03  1.34018266458E-03
  1.35365172428E-03  1.36725615028E-03  1.38099730304E-03  1.39487655668E-03
  1.40889529913E-03  1.42305493229E-03  1.43735687213E-03  1.45180254886E-03
  1.46639340705E-03  1.48113090580E-03  1.49601651888E-03  1.51105173485E-03
  1.52623805726E-03  1.54157700474E-03  1.55707011122E-03  1.57271892600E-03
  1.58852501398E-03  1.60448995579E-03  1.62061534793E-03  1.63690280295E-03
  1.65335394962E-03  1.66997043307E-03  1.68675391494E-03  1.70370607362E-03
  1.72082860432E-03  1.73812321932E-03  1.75559164808E-03  1.77323563748E-03
  1.79105695192E-03  1.80905737354E-03  1.82723870241E-03  1.84560275667E-03
  1.86415137275E-03  1.88288640551E-03  1.90180972849E-03  1.92092323402E-03
  1.94022883348E-03  1.95972845744E-03  1.97942405587E-03  1.99931759837E-03
  2.01941107428E-03  2.03970649299E-03  2.06020588405E-03  2.08091129741E-03
  2.10182480364E-03  2.12294849410E-03  2.14428448117E-03  2.16583489848E-03
  2.18760190109E-03  2.20958766571E-03  2.23179439094E-03  2.25422429746E-03
  2.27687962830E-03  2.29976264899E-03  2.32287564787E-03  2.34622093625E-03
  2.36980084867E-03  2.39361774316E-03  2.41767400141E-03  2.44197202908E-03
  2.46651425599E-03  2.49130313638E-03  2.51634114916E-03  2.54163079815E-03
  2.56717461233E-03  2.59297514612E-03  2.61903497958E-03  2.64535671873E-03
  2.67194299575E-03  2.69879646930E-03  2.72591982474E-03  2.75331577444E-03
  2.78098705800E-03  2.80893644260E-03  2.83716672317E-03  2.86568072279E-03
  2.89448129286E-03  2.92357131347E-03  2.95295369366E-03  2.98263137167E-03
  3.01260731531E-03  3.04288452218E-03  3.07346602005E-03  3.10435486708E-03
  3.13555415218E-03  3.16706699531E-03  3.19889654778E-03  3.23104599257E-03
  3.26351854465E-03  3.29631745131E-03  3.32944599246E-03  3.36290748098E-03
  3.39670526305E-03  3.43084271848E-03  3.46532326104E-03  3.50015033882E-03
  3.53532743454E-03  3.57085806596E-03  3.60674578615E-03  3.64299418393E-03
  3.67960688417E-03  3.71658754816E-03  3.75393987400E-03  3.79166759696E-03
  3.82977448984E-03  3.86826436335E-03  3.90714106653E-03  3.94640848707E-03
  3.98607055175E-03  4.02613122680E-03  4.06659451833E-03  4.10746447271E-03
  4.14874517695E-03  4.19044075917E-03  4.23255538895E-03  4.27509327781E-03
  4.31805867955E-03  4.36145589076E-03  4.40528925119E-03  4.44956314422E-03
  4.49428199727E-03  4.53945028227E-03  4.58507251607E-03  4.63115326095E-03
  4.67769712502E-03  4.72470876269E-03  4.77219287518E-03  4.82015421093E-03
  4.86859756613E-03  4.91752778513E-03  4.96694976101E-03  5.01686843601E-03
  5.06728880203E-03  5.11821590116E-03  5.16965482613E-03  5.22161072090E-03
  5.27408878110E-03  5.32709425457E-03  5.38063244190E-03  5.43470869696E-03
  5.48932842741E-03  5.54449709529E-03  5.60022021750E-03  5.65650336639E-03
  5.71335217033E-03  5.77077231426E-03  5.82876954022E-03  5.88734964799E-03
  5.94651849564E-03  6.00628200009E-03  6.06664613774E-03  6.12761694507E-03
  6.18920051919E-03  6.25140301853E-03  6.31423066338E-03  6.37768973655E-03
  6.44178658402E-03  6.50652761550E-03  6.57191930518E-03  6.63796819226E-03
  6.70468088169E-03  6.77206404480E-03  6.84012441995E-03  6.90886881325E-03
  6.97830409919E-03  7.04843722135E-03  7.11927519310E-03  7.19082509831E-03
  7.26309409202E-03  7.33608940120E-03  7.40981832542E-03  7.48428823766E-03
  7.55950658495E-03  7.63548088920E-03  7.71221874791E-03  7.78972783491E-03
  7.86801590120E-03  7.94709077562E-03  8.02696036575E-03  8.10763265860E-03
  8.18911572148E-03  8.27141770275E-03  8.35454683269E-03  8.43851142427E-03
  8.52331987403E-03  8.60898066287E-03  8.69550235696E-03  8.78289360853E-03
  8.87116315677E-03  8.96031982873E-03  9.05037254014E-03  9.14133029634E-03
  9.23320219319E-03  9.32599741795E-03  9.41972525023E-03  9.51439506288E-03
  9.61001632297E-03  9.70659859270E-03  9.80415153037E-03  9.90268489137E-03
  1.00022085291E-02  1.01027323960E-02  1.02042665446E-02  1.03068211284E-02
  1.04104064028E-02  1.05150327266E-02  1.06207105624E-02  1.07274504781E-02
  1.08352631478E-02  1.09441593528E-02  1.10541499829E-02  1.11652460372E-02
  1.12774586254E-02  1.13907989689E-02  1.15052784017E-02  1.16209083720E-02
  1.17377004428E-02  1.18556662935E-02  1.19748177206E-02  1.20951666395E-02
  1.22167250851E-02  1.23395052135E-02  1.24635193026E-02  1.25887797541E-02
  1.27152990940E-02  1.28430899744E-02  1.29721651745E-02  1.31025376020E-02
  1.32342202941E-02  1.33672264193E-02  1.35015692782E-02  1.36372623054E-02
  1.37743190701E-02  1.39127532782E-02  1.40525787733E-02  1.41938095379E-02
  1.43364596953E-02  1.44805435107E-02  1.46260753924E-02  1.47730698939E-02
  1.49215417147E-02  1.50715057021E-02  1.52229768526E-02  1.53759703135E-02
  1.55305013842E-02  1.56865855180E-02  1.58442383235E-02  1.60034755659E-02
  1.61643131693E-02  1.63267672174E-02  1.64908539559E-02  1.66565897935E-02
  1.68239913040E-02  1.69930752276E-02  1.71638584730E-02  1.73363581184E-02
  1.75105914141E-02  1.76865757836E-02  1.78643288254E-02  1.80438683149E-02
  1.82252122063E-02  1.84083786341E-02  1.85933859152E-02  1.87802525503E-02
  1.89689972263E-02  1.91596388178E-02  1.93521963892E-02  1.95466891964E-02
  1.97431366887E-02  1.99415585112E-02  2.01419745062E-02  2.03444047154E-02
  2.05488693820E-02  2.07553889527E-02  2.09639840795E-02  2.11746756223E-02
  2.13874846502E-02  2.16024324445E-02  2.18195405000E-02  2.20388305277E-02
  2.22603244569E-02  2.24840444370E-02  2.27100128403E-02  2.29382522638E-02
  2.31687855317E-02  2.34016356974E-02  2.36368260462E-02  2.38743800973E-02
  2.41143216064E-02  2.43566745676E-02  2.46014632166E-02  2.48487120325E-02
  2.50984457402E-02  2.53506893135E-02  2.56054679768E-02  2.58628072082E-02
  2.61227327419E-02  2.63852705707E-02  2.66504469485E-02  2.69182883932E-02
  2.71888216891E-02  2.74620738899E-02  2.77380723210E-02  2.80168445824E-02
  2.82984185516E-02  2.85828223863E-02  2.88700845270E-02  2.91602337003E-02
  2.94532989212E-02  2.97493094965E-02  3.00482950276E-02  3.03502854132E-02
  3.06553108527E-02  3.09634018487E-02  3.12745892108E-02  3.15889040579E-02
  3.19063778217E-02  3.22270422498E-02  3.25509294091E-02  3.28780716884E-02
  3.32085018022E-02  3.35422527940E-02  3.38793580389E-02  3.42198512479E-02
  3.45637664706E-02  3.49111380986E-02  3.52620008696E-02  3.56163898701E-02
  3.59743405392E-02  3.63358886724E-02  3.67010704247E-02  3.70699223146E-02
  3.74424812277E-02  3.78187844201E-02  3.81988695224E-02  3.85827745435E-02
  3.89705378743E-02  3.93621982913E-02  3.97577949609E-02  4.01573674432E-02
  4.05609556956E-02  4.09686000775E-02  4.13803413534E-02  4.17962206980E-02
  4.22162796995E-02  4.26405603642E-02  4.30691051204E-02  4.35019568230E-02
  4.39391587576E-02  4.43807546447E-02  4.48267886442E-02  4.52773053599E-02
  4.57323498439E-02  4.61919676009E-02  4.66562045933E-02  4.71251072450E-02
  4.75987224466E-02  4.80770975602E-02  4.85602804236E-02  4.90483193555E-02
  4.95412631602E-02  5.00391611326E-02  5.05420630627E-02  5.10500192413E-02
  5.15630804643E-02  5.20812980383E-02  5.26047237856E-02  5.31334100490E-02
  5.36674096978E-02  5.42067761322E-02  5.47515632894E-02  5.53018256486E-02
  5.58576182364E-02  5.64189966326E-02  5.69860169755E-02  5.75587359676E-02
  5.81372108812E-02  5.87214995644E-02  5.93116604464E-02  5.99077525440E-02
  6.05098354667E-02  6.11179694233E-02  6.17322152279E-02  6.23526343054E-02
  6.29792886983E-02  6.36122410726E-02  6.42515547239E-02  6.48972935843E-02
  6.55495222282E-02  6.62083058789E-02  6.68737104153E-02  6.75458023785E-02
  6.82246489782E-02  6.89103180997E-02  6.96028783105E-02  7.03023988670E-02
  7.10089497220E-02  7.17226015312E-02  7.24434256603E-02  7.31714941924E-02
  7.39068799348E-02  7.46496564268E-02  7.53998979467E-02  7.61576795192E-02
  7.69230769231E-02  7.76961666988E-02  7.84770261559E-02  7.92657333810E-02
  8.00623672456E-02  8.08670074135E-02  8.16797343496E-02  8.25006293272E-02
  8.33297744365E-02  8.41672525927E-02  8.50131475443E-02  8.58675438815E-02
  8.67305270446E-02  8.76021833327E-02  8.84825999121E-02  8.93718648253E-02
  9.02700669994E-02  9.11772962554E-02  9.20936433171E-02  9.30191998198E-02
  9.39540583200E-02  9.48983123044E-02  9.58520561990E-02  9.68153853792E-02
  9.77883961786E-02  9.87711858991E-02  9.97638528204E-02  1.00766496210E-01
  1.01779216334E-01  1.02802114463E-01  1.03835292890E-01  1.04878854933E-01
  1.05932904949E-01  1.06997548343E-01  1.08072891582E-01  1.09159042199E-01
  1.10256108812E-01  1.11364201128E-01  1.12483429956E-01  1.13613907222E-01
  1.14755745972E-01  1.15909060393E-01  1.17073965817E-01  1.18250578734E-01
  1.19439016809E-01  1.20639398884E-01  1.21851845000E-01  1.23076476401E-01
  1.24313415553E-01  1.25562786150E-01  1.26824713131E-01  1.28099322688E-01
  1.29386742285E-01  1.30687100663E-01  1.32000527860E-01  1.33327155221E-01
  1.34667115407E-01  1.36020542418E-01  1.37387571596E-01  1.38768339646E-01
  1.40162984645E-01  1.41571646060E-01  1.42994464757E-01  1.44431583020E-01
  1.45883144562E-01  1.47349294540E-01  1.48830179569E-01  1.50325947741E-01
  1.51836748633E-01  1.53362733326E-01  1.54904054421E-01  1.56460866050E-01
  1.58033323896E-01  1.59621585206E-01  1.61225808807E-01  1.62846155124E-01
  1.64482786192E-01  1.66135865676E-01  1.67805558884E-01  1.69492032789E-01
  1.71195456038E-01  1.72915998975E-01  1.74653833656E-01  1.76409133866E-01
  1.78182075137E-01  1.79972834764E-01  1.81781591824E-01  1.83608527194E-01
  1.85453823571E-01  1.87317665484E-01  1.89200239320E-01  1.91101733337E-01
  1.93022337687E-01  1.94962244432E-01  1.96921647564E-01  1.98900743024E-01
  2.00899728725E-01  2.02918804566E-01  2.04958172456E-01  2.07018036335E-01
  2.09098602189E-01  2.11200078078E-01  2.13322674151E-01  2.15466602669E-01
  2.17632078027E-01  2.19819316774E-01  2.22028537636E-01  2.24259961537E-01
  2.26513811620E-01  2.28790313274E-01  2.31089694150E-01  2.33412184187E-01
  2.35758015638E-01  2.38127423087E-01  2.40520643476E-01  2.42937916130E-01
  2.45379482778E-01  2.47845587579E-01  2.50336477145E-01  2.52852400568E-01
  2.55393609441E-01  2.57960357888E-01  2.60552902586E-01  2.63171502792E-01
  2.65816420366E-01  2.68487919805E-01  2.71186268259E-01  2.73911735566E-01
  2.76664594275E-01  2.79445119673E-01  2.82253589817E-01  2.85090285555E-01
  2.87955490559E-01  2.90849491351E-01  2.93772577336E-01  2.96725040823E-01
  2.99707177061E-01  3.02719284267E-01  3.05761663653E-01  3.08834619461E-01
  3.11938458988E-01  3.15073492621E-01  3.18240033865E-01  3.21438399379E-01
  3.24668909000E-01  3.27931885782E-01  3.31227656027E-01  3.34556549313E-01
  3.37918898532E-01  3.41315039923E-01  3.44745313103E-01  3.48210061101E-01
  3.51709630396E-01  3.55244370946E-01  3.58814636230E-01  3.62420783276E-01
  3.66063172703E-01  3.69742168752E-01  3.73458139326E-01  3.77211456025E-01
  3.81002494184E-01  3.84831632910E-01  3.88699255120E-01  3.92605747580E-01
  3.96551500941E-01  4.00536909783E-01  4.04562372650E-01  4.08628292091E-01
  4.12735074702E-01  4.16883131164E-01  4.21072876287E-01  4.25304729048E-01
  4.29579112637E-01  4.33896454494E-01  4.38257186359E-01  4.42661744308E-01
  4.47110568800E-01  4.51604104722E-01  4.56142801430E-01  4.60727112799E-01
  4.65357497263E-01  4.70034417864E-01  4.74758342299E-01  4.79529742963E-01
  4.84349097002E-01  4.89216886354E-01  4.94133597802E-01  4.99099723022E-01
  5.04115758630E-01  5.09182206234E-01  5.14299572483E-01  5.19468369118E-01
  5.24689113022E-01  5.29962326275E-01  5.35288536203E-01  5.40668275430E-01
  5.46102081935E-01  5.51590499104E-01  5.57134075782E-01  5.62733366332E-01
  5.68388930687E-01  5.74101334409E-01  5.79871148743E-01  5.85698950675E-01
  5.91585322991E-01  5.97530854331E-01  6.03536139255E-01  6.09601778296E-01
  6.15728378023E-01  6.21916551100E-01  6.28166916351E-01  6.34480098817E-01
  6.40856729822E-01  6.47297447034E-01  6.53802894530E-01  6.60373722860E-01
  6.67010589113E-01  6.73714156980E-01  6.80485096825E-01  6.87324085746E-01
  6.94231807649E-01  7.01208953311E-01  7.08256220452E-01  7.15374313806E-01
  7.22563945188E-01  7.29825833566E-01  7.37160705136E-01  7.44569293390E-01
  7.52052339195E-01  7.59610590859E-01  7.67244804217E-01  7.74955742693E-01
  7.82744177390E-01  7.90610887157E-01  7.98556658672E-01  8.06582286518E-01
  8.14688573264E-01  8.22876329547E-01  8.31146374149E-01  8.39499534080E-01
  8.47936644665E-01  8.56458549620E-01  8.65066101145E-01  8.73760160000E-01
  8.82541595600E-01  8.91411286094E-01  9.00370118460E-01  9.09418988588E-01
  9.18558801373E-01  9.27790470803E-01  9.37114920054E-01  9.46533081578E-01
  9.56045897198E-01  9.65654318205E-01  9.75359305449E-01  9.85161829436E-01
  9.95062870426E-01  1.00506341853E+00  1.01516447382E+00  1.02536704640E+00
  1.03567215654E+00  1.04608083476E+00  1.05659412193E+00  1.06721306939E+00
  1.07793873906E+00  1.08877220349E+00  1.09971454605E+00  1.11076686098E+00
  1.12193025353E+00  1.13320584003E+00  1.14459474807E+00  1.15609811653E+00
  1.16771709577E+00  1.17945284769E+00  1.19130654587E+00  1.20327937571E+00
  1.21537253448E+00  1.22758723152E+00  1.23992468831E+00  1.25238613860E+00
  1.26497282855E+00  1.27768601683E+00  1.29052697478E+00  1.30349698650E+00
  1.31659734901E+00  1.32982937235E+00  1.34319437974E+00  1.35669370768E+00
  1.37032870612E+00  1.38410073858E+00  1.39801118226E+00  1.41206142823E+00
  1.42625288152E+00  1.44058696128E+00  1.45506510094E+00  1.46968874833E+00
  1.48445936581E+00  1.49937843046E+00  1.51444743421E+00  1.52966788397E+00
  1.54504130178E+00  1.56056922502E+00  1.57625320648E+00  1.59209481457E+00
  1.60809563347E+00  1.62425726327E+00  1.64058132016E+00  1.65706943654E+00
  1.67372326125E+00  1.69054445967E+00  1.70753471396E+00  1.72469572313E+00
  1.74202920332E+00  1.75953688788E+00  1.77722052759E+00  1.79508189084E+00
  1.81312276377E+00  1.83134495049E+00  1.84975027324E+00  1.86834057255E+00
  1.88711770747E+00  1.90608355574E+00  1.92524001395E+00  1.94458899777E+00
  1.96413244210E+00  1.98387230132E+00  2.00381054942E+00  2.02394918025E+00
  2.04429020768E+00  2.06483566584E+00  2.08558760928E+00  2.10654811322E+00
  2.12771927373E+00  2.14910320794E+00  2.17070205426E+00  2.19251797260E+00
  2.21455314456E+00  2.23680977368E+00  2.25929008564E+00  2.28199632849E+00
  2.30493077288E+00  2.32809571226E+00  2.35149346316E+00  2.37512636536E+00
  2.39899678218E+00  2.42310710067E+00  2.44745973190E+00  2.47205711113E+00
  2.49690169814E+00  2.52199597740E+00  2.54734245836E+00  2.57294367569E+00
  2.59880218953E+00  2.62492058575E+00  2.65130147622E+00  2.67794749905E+00
  2.70486131885E+00  2.73204562705E+00  2.75950314208E+00  2.78723660973E+00
  2.81524880336E+00  2.84354252422E+00  2.87212060170E+00  2.90098589363E+00
  2.93014128657E+00  2.95958969608E+00  2.98933406703E+00  3.01937737387E+00
  3.04972262097E+00  3.08037284287E+00  3.11133110462E+00  3.14260050208E+00
  3.17418416220E+00  3.20608524339E+00  3.23830693577E+00  3.27085246154E+00
  3.30372507529E+00  3.33692806430E+00  3.37046474889E+00  3.40433848277E+00
  3.43855265333E+00  3.47311068202E+00  3.50801602468E+00  3.54327217186E+00
  3.57888264921E+00  3.61485101781E+00  3.65118087453E+00  3.68787585237E+00
  3.72493962087E+00  3.76237588644E+00  3.80018839273E+00  3.83838092103E+00
  3.87695729062E+00  3.91592135917E+00  3.95527702312E+00  3.99502821806E+00
  4.03517891916E+00  4.07573314151E+00  4.11669494058E+00  4.15806841256E+00
  4.19985769486E+00  4.24206696642E+00  4.28470044822E+00  4.32776240363E+00
  4.37125713888E+00  4.41518900350E+00  4.45956239069E+00  4.50438173784E+00
  4.54965152691E+00  4.59537628493E+00  4.64156058441E+00  4.68820904382E+00
  4.73532632803E+00  4.78291714883E+00  4.83098626532E+00  4.87953848447E+00
  4.92857866153E+00  4.97811170057E+00  5.02814255492E+00  5.07867622772E+00
  5.12971777238E+00  5.18127229309E+00  5.23334494534E+00  5.28594093645E+00
  5.33906552606E+00  5.39272402667E+00  5.44692180418E+00  5.50166427840E+00
  5.55695692364E+00  5.61280526920E+00  5.66921489997E+00  5.72619145695E+00
  5.78374063785E+00  5.84186819763E+00  5.90057994910E+00  5.95988176348E+00
  6.01977957101E+00  6.08027936150E+00  6.14138718501E+00  6.20310915234E+00
  6.26545143577E+00  6.32842026955E+00  6.39202195064E+00  6.45626283925E+00
  6.52114935953E+00  6.58668800017E+00  6.65288531510E+00  6.71974792411E+00
  6.78728251351E+00  6.85549583682E+00  6.92439471542E+00  6.99398603927E+00
  7.06427676755E+00  7.13527392939E+00  7.20698462457E+00  7.27941602422E+00
  7.35257537154E+00  7.42646998253E+00  7.50110724670E+00  7.57649462784E+00
  7.65263966476E+00  7.72954997203E+00  7.80723324073E+00  7.88569723927E+00
  7.96494981410E+00  8.04499889055E+00  8.12585247359E+00  8.20751864865E+00
  8.29000558242E+00  8.37332152365E+00  8.45747480401E+00  8.54247383890E+00
  8.62832712829E+00  8.71504325759E+00  8.80263089847E+00  8.89109880978E+00
  8.98045583838E+00  9.07071092005E+00  9.16187308037E+00  9.25395143563E+00
  9.34695519375E+00  9.44089365517E+00  9.53577621383E+00  9.63161235806E+00
  9.72841167155E+00  9.82618383431E+00  9.92493862364E+00  1.00246859151E+01
  1.01254356835E+01  1.02271980039E+01  1.03299830527E+01  1.04338011083E+01
  1.05386625528E+01  1.06445778723E+01  1.07515576585E+01  1.08596126093E+01
  1.09687535305E+01  1.10789913362E+01  1.11903370503E+01  1.13028018074E+01
  1.14163968540E+01  1.15311335499E+01  1.16470233688E+01  1.17640778997E+01
  1.18823088481E+01  1.20017280374E+01  1.21223474095E+01  1.22441790264E+01
  1.23672350714E+01  1.24915278503E+01  1.26170697923E+01  1.27438734518E+01
  1.28719515093E+01  1.30013167727E+01  1.31319821786E+01  1.32639607936E+01
  1.33972658158E+01  1.35319105757E+01  1.36679085380E+01  1.38052733024E+01
  1.39440186058E+01  1.40841583226E+01  1.42257064670E+01  1.43686771939E+01
  1.45130848004E+01  1.46589437276E+01  1.48062685613E+01  1.49550740343E+01
  1.51053750271E+01  1.52571865700E+01  1.54105238442E+01  1.55654021837E+01
  1.57218370764E+01  1.58798441659E+01  1.60394392530E+01  1.62006382974E+01
  1.63634574192E+01  1.65279129003E+01  1.66940211865E+01  1.68617988888E+01
  1.70312627849E+01  1.72024298216E+01  1.73753171155E+01  1.75499419557E+01
  1.77263218047E+01  1.79044743006E+01  1.80844172589E+01  1.82661686739E+01
  1.84497467211E+01  1.86351697583E+01  1.88224563280E+01  1.90116251590E+01
  1.92026951684E+01  1.93956854633E+01  1.95906153430E+01  1.97875043004E+01
  1.99863720248E+01  2.01872384031E+01  2.03901235220E+01  2.05950476703E+01
  2.08020313405E+01  2.10110952311E+01  2.12222602488E+01  2.14355475102E+01
  2.16509783443E+01  2.18685742941E+01  2.20883571197E+01  2.23103487994E+01
  2.25345715325E+01  2.27610477416E+01  2.29898000744E+01  2.32208514064E+01
  2.34542248428E+01  2.36899437213E+01  2.39280316140E+01  2.41685123297E+01
  2.44114099168E+01  2.46567486652E+01  2.49045531090E+01  2.51548480289E+01
  2.54076584546E+01  2.56630096673E+01  2.59209272023E+01  2.61814368517E+01
  2.64445646665E+01  2.67103369599E+01  2.69787803092E+01  2.72499215591E+01
  2.75237878238E+01  2.78004064902E+01  2.80798052204E+01  2.83620119546E+01
  2.86470549136E+01  2.89349626019E+01  2.92257638106E+01  2.95194876201E+01
  2.98161634029E+01  3.01158208269E+01  3.04184898581E+01  3.07242007636E+01
  3.10329841148E+01  3.13448707903E+01  3.16598919790E+01  3.19780791832E+01
  3.22994642221E+01  3.26240792342E+01  3.29519566815E+01  3.32831293519E+01
  3.36176303630E+01  3.39554931651E+01  3.42967515448E+01  3.46414396283E+01
  3.49895918846E+01  3.53412431292E+01  3.56964285276E+01  3.60551835986E+01
  3.64175442181E+01  3.67835466223E+01  3.71532274118E+01  3.75266235550E+01
  3.79037723918E+01  3.82847116374E+01  3.86694793862E+01  3.90581141151E+01
  3.94506546879E+01  3.98471403591E+01  4.02476107775E+01  4.06521059906E+01
  4.10606664481E+01  4.14733330065E+01  4.18901469328E+01  4.23111499086E+01
  4.27363840347E+01  4.31658918348E+01  4.35997162601E+01  4.40379006934E+01
  4.44804889534E+01  4.49275252993E+01  4.53790544353E+01  4.58351215145E+01
  4.62957721440E+01  4.67610523893E+01  4.72310087789E+01  4.77056883087E+01
  4.81851384470E+01  4.86694071394E+01  4.91585428130E+01  4.96525943819E+01
  5.01516112516E+01  5.06556433242E+01  5.11647410034E+01  5.16789551993E+01
  5.21983373338E+01  5.27229393455E+01  5.32528136951E+01  5.37880133705E+01
  5.43285918920E+01  5.48746033179E+01  5.54261022499E+01  5.59831438384E+01
  5.65457837878E+01  5.71140783628E+01  5.76880843932E+01  5.82678592801E+01
  5.88534610015E+01  5.94449481181E+01  6.00423797790E+01
  </PP_R>
  <PP_RAB>
  2.58048175310E-07  2.60641602587E-07  2.63261094242E-07  2.65906912226E-07
  2.68579321123E-07  2.71278588176E-07  2.74004983313E-07  2.76758779177E-07
  2.79540251150E-07  2.82349677381E-07  2.85187338815E-07  2.88053519220E-07
  2.90948505217E-07  2.93872586308E-07  2.96826054902E-07  2.99809206348E-07
  3.02822338965E-07  3.05865754069E-07  3.08939756003E-07  3.12044652169E-07