<PP_INFO>
Generated using Vanderbilt code, version   7  3  2                              
Author: Yi Yao    Generation date:    0    0    0                               
Automatically converted from original format                                    
    2        The Pseudo was generated with a Full-Relativistic Calculation
nl pn  l   occ               Rcut            Rcut US             E pseu
0S  0  0  1.00      0.00000000000      0.00000000000      0.00000000000
0P  0  1  0.00      0.00000000000      0.00000000000      0.00000000000
0D  0  2 10.00      0.00000000000      0.00000000000      0.00000000000
</PP_INFO>


<PP_HEADER>
   0                   Version Number
  Au                   Element
   NC                  Norm - Conserving pseudopotential
    F                  Nonlinear Core Correction
 SLA  PW   SCAN SCAN   SCAN Exchange-Correlation functional
   11.00000000000      Z valence
    0.00000000000      Total energy
    0.00000    0.00000 Suggested cutoff for wfc and rho
    1                  Max angular momentum component
 1647                  Number of points in mesh
    3    2             Number of Wavefunctions, Number of Projectors
 Wavefunctions         nl  l   occ
                       0S  0  1.00
                       0P  1  0.00
                       0D  2 10.00
</PP_HEADER>


<PP_MESH>
  <PP_R>
  4.24636237851E-06  4.28903902992E-06  4.33214458880E-06  4.37568336575E-06
  4.41965971468E-06  4.46407803327E-06  4.50894276338E-06  4.55425839153E-06
  4.60002944930E-06  4.64626051386E-06  4.69295620834E-06  4.74012120236E-06
  4.78776021244E-06  4.83587800253E-06  4.88447938446E-06  4.93356921839E-06
  4.98315241336E-06  5.03323392772E-06  5.08381876966E-06  5.13491199772E-06
  5.18651872126E-06  5.23864410100E-06  5.29129334951E-06  5.34447173176E-06
  5.39818456564E-06  5.45243722248E-06  5.50723512758E-06  5.56258376078E-06
  5.61848865700E-06  5.67495540676E-06  5.73198965679E-06  5.78959711057E-06
  5.84778352888E-06  5.90655473042E-06  5.96591659235E-06  6.02587505091E-06
  6.08643610200E-06  6.14760580178E-06  6.20939026725E-06  6.27179567693E-06
  6.33482827140E-06  6.39849435398E-06  6.46280029132E-06  6.52775251408E-06
  6.59335751753E-06  6.65962186223E-06  6.72655217466E-06  6.79415514792E-06
  6.86243754235E-06  6.93140618625E-06  7.00106797655E-06  7.07142987949E-06
  7.14249893130E-06  7.21428223896E-06  7.28678698085E-06  7.36002040752E-06
  7.43398984235E-06  7.50870268237E-06  7.58416639892E-06  7.66038853842E-06
  7.73737672316E-06  7.81513865202E-06  7.89368210126E-06  7.97301492529E-06
  8.05314505745E-06  8.13408051083E-06  8.21582937904E-06  8.29839983703E-06
  8.38180014193E-06  8.46603863382E-06  8.55112373663E-06  8.63706395894E-06
  8.72386789485E-06  8.81154422481E-06  8.90010171654E-06  8.98954922586E-06
  9.07989569759E-06  9.17115016645E-06  9.26332175798E-06  9.35641968940E-06
  9.45045327059E-06  9.54543190498E-06  9.64136509052E-06  9.73826242060E-06
  9.83613358503E-06  9.93498837102E-06  1.00348366641E-05  1.01356884493E-05
  1.02375538117E-05  1.03404429380E-05  1.04443661173E-05  1.05493337419E-05
  1.06553563086E-05  1.07624444198E-05  1.08706087845E-05  1.09798602191E-05
  1.10902096488E-05  1.12016681088E-05  1.13142467449E-05  1.14279568151E-05
  1.15428096906E-05  1.16588168566E-05  1.17759899140E-05  1.18943405802E-05
  1.20138806904E-05  1.21346221987E-05  1.22565771793E-05  1.23797578278E-05
  1.25041764624E-05  1.26298455251E-05  1.27567775829E-05  1.28849853291E-05
  1.30144815845E-05  1.31452792989E-05  1.32773915523E-05  1.34108315558E-05
  1.35456126537E-05  1.36817483241E-05  1.38192521808E-05  1.39581379741E-05
  1.40984195930E-05  1.42401110655E-05  1.43832265610E-05  1.45277803912E-05
  1.46737870115E-05  1.48212610227E-05  1.49702171723E-05  1.51206703562E-05
  1.52726356197E-05  1.54261281595E-05  1.55811633250E-05  1.57377566198E-05
  1.58959237033E-05  1.60556803925E-05  1.62170426631E-05  1.63800266515E-05
  1.65446486562E-05  1.67109251395E-05  1.68788727293E-05  1.70485082204E-05
  1.72198485766E-05  1.73929109319E-05  1.75677125929E-05  1.77442710397E-05
  1.79226039284E-05  1.81027290925E-05  1.82846645446E-05  1.84684284783E-05
  1.86540392703E-05  1.88415154818E-05  1.90308758605E-05  1.92221393426E-05
  1.94153250547E-05  1.96104523155E-05  1.98075406379E-05  2.00066097308E-05
  2.02076795014E-05  2.04107700568E-05  2.06159017062E-05  2.08230949629E-05
  2.10323705465E-05  2.12437493847E-05  2.14572526155E-05  2.16729015894E-05
  2.18907178716E-05  2.21107232438E-05  2.23329397068E-05  2.25573894823E-05
  2.27840950156E-05  2.30130789773E-05  2.32443642662E-05  2.34779740108E-05
  2.37139315724E-05  2.39522605470E-05  2.41929847675E-05  2.44361283067E-05
  2.46817154791E-05  2.49297708435E-05  2.51803192059E-05  2.54333856211E-05
  2.56889953961E-05  2.59471740921E-05  2.62079475271E-05  2.64713417787E-05
  2.67373831865E-05  2.70060983549E-05  2.72775141557E-05  2.75516577306E-05
  2.78285564942E-05  2.81082381367E-05  2.83907306264E-05  2.86760622128E-05
  2.89642614294E-05  2.92553570962E-05  2.95493783232E-05  2.98463545125E-05
  3.01463153622E-05  3.04492908686E-05  3.07553113294E-05  3.10644073470E-05
  3.13766098312E-05  3.16919500026E-05  3.20104593953E-05  3.23321698607E-05
  3.26571135700E-05  3.29853230178E-05  3.33168310255E-05  3.36516707440E-05
  3.39898756576E-05  3.43314795872E-05  3.46765166933E-05  3.50250214799E-05
  3.53770287979E-05  3.57325738483E-05  3.60916921858E-05  3.64544197226E-05
  3.68207927318E-05  3.71908478509E-05  3.75646220858E-05  3.79421528143E-05
  3.83234777896E-05  3.87086351446E-05  3.90976633954E-05  3.94906014451E-05
  3.98874885879E-05  4.02883645128E-05  4.06932693077E-05  4.11022434634E-05
  4.15153278778E-05  4.19325638595E-05  4.23539931325E-05  4.27796578402E-05
  4.32096005493E-05  4.36438642545E-05  4.40824923824E-05  4.45255287964E-05
  4.49730178003E-05  4.54250041434E-05  4.58815330249E-05  4.63426500979E-05
  4.68084014745E-05  4.72788337302E-05  4.77539939088E-05  4.82339295265E-05
  4.87186885773E-05  4.92083195377E-05  4.97028713710E-05  5.02023935328E-05
  5.07069359758E-05  5.12165491547E-05  5.17312840312E-05  5.22511920792E-05
  5.27763252899E-05  5.33067361772E-05  5.38424777825E-05  5.43836036804E-05
  5.49301679840E-05  5.54822253502E-05  5.60398309852E-05  5.66030406500E-05
  5.71719106660E-05  5.77464979207E-05  5.83268598733E-05  5.89130545605E-05
  5.95051406023E-05  6.01031772077E-05  6.07072241810E-05  6.13173419272E-05
  6.19335914587E-05  6.25560344010E-05  6.31847329989E-05  6.38197501227E-05
  6.44611492747E-05  6.51089945953E-05  6.57633508697E-05  6.64242835339E-05
  6.70918586819E-05  6.77661430716E-05  6.84472041322E-05  6.91351099701E-05
  6.98299293767E-05  7.05317318344E-05  7.12405875241E-05  7.19565673319E-05
  7.26797428564E-05  7.34101864157E-05  7.41479710549E-05  7.48931705529E-05
  7.56458594305E-05  7.64061129570E-05  7.71740071584E-05  7.79496188249E-05
  7.87330255183E-05  7.95243055798E-05  8.03235381381E-05  8.11308031172E-05
  8.19461812442E-05  8.27697540576E-05  8.36016039154E-05  8.44418140032E-05
  8.52904683429E-05  8.61476518004E-05  8.70134500949E-05  8.78879498069E-05
  8.87712383872E-05  8.96634041652E-05  9.05645363584E-05  9.14747250807E-05
  9.23940613518E-05  9.33226371059E-05  9.42605452016E-05  9.52078794303E-05
  9.61647345263E-05  9.71312061759E-05  9.81073910270E-05  9.90933866991E-05
  1.00089291792E-04  1.01095205898E-04  1.02111229609E-04  1.03137464528E-04
  1.04174013279E-04  1.05220979518E-04  1.06278467943E-04  1.07346584303E-04
  1.08425435411E-04  1.09515129153E-04  1.10615774500E-04  1.11727481516E-04
  1.12850361373E-04  1.13984526360E-04  1.15130089895E-04  1.16287166535E-04
  1.17455871988E-04  1.18636323127E-04  1.19828637996E-04  1.21032935830E-04
  1.22249337057E-04  1.23477963321E-04  1.24718937483E-04  1.25972383644E-04
  1.27238427147E-04  1.28517194600E-04  1.29808813879E-04  1.31113414147E-04
  1.32431125866E-04  1.33762080808E-04  1.35106412070E-04  1.36464254085E-04
  1.37835742640E-04  1.39221014884E-04  1.40620209345E-04  1.42033465944E-04
  1.43460926008E-04  1.44902732285E-04  1.46359028955E-04  1.47829961651E-04
  1.49315677465E-04  1.50816324972E-04  1.52332054237E-04  1.53863016834E-04
  1.55409365862E-04  1.56971255955E-04  1.58548843305E-04  1.60142285671E-04
  1.61751742399E-04  1.63377374436E-04  1.65019344347E-04  1.66677816330E-04
  1.68352956233E-04  1.70044931573E-04  1.71753911547E-04  1.73480067055E-04
  1.75223570715E-04  1.76984596878E-04  1.78763321648E-04  1.80559922899E-04
  1.82374580293E-04  1.84207475296E-04  1.86058791201E-04  1.87928713140E-04
  1.89817428107E-04  1.91725124975E-04  1.93651994516E-04  1.95598229417E-04
  1.97564024304E-04  1.99549575758E-04  2.01555082336E-04  2.03580744590E-04
  2.05626765088E-04  2.07693348434E-04  2.09780701288E-04  2.11889032387E-04
  2.14018552566E-04  2.16169474778E-04  2.18342014118E-04  2.20536387842E-04
  2.22752815388E-04  2.24991518401E-04  2.27252720753E-04  2.29536648567E-04
  2.31843530237E-04  2.34173596453E-04  2.36527080224E-04  2.38904216901E-04
  2.41305244198E-04  2.43730402220E-04  2.46179933486E-04  2.48654082950E-04
  2.51153098030E-04  2.53677228629E-04  2.56226727162E-04  2.58801848581E-04
  2.61402850401E-04  2.64029992724E-04  2.66683538266E-04  2.69363752385E-04
  2.72070903102E-04  2.74805261137E-04  2.77567099927E-04  2.80356695659E-04
  2.83174327293E-04  2.86020276596E-04  2.88894828166E-04  2.91798269459E-04
  2.94730890821E-04  2.97692985519E-04  3.00684849763E-04  3.03706782743E-04
  3.06759086654E-04  3.09842066730E-04  3.12956031270E-04  3.16101291674E-04
  3.19278162471E-04  3.22486961350E-04  3.25728009194E-04  3.29001630111E-04
  3.32308151464E-04  3.35647903910E-04  3.39021221426E-04  3.42428441346E-04
  3.45869904396E-04  3.49345954725E-04  3.52856939940E-04  3.56403211143E-04
  3.59985122964E-04  3.63603033598E-04  3.67257304838E-04  3.70948302114E-04
  3.74676394530E-04  3.78441954898E-04  3.82245359776E-04  3.86086989509E-04
  3.89967228263E-04  3.93886464064E-04  3.97845088840E-04  4.01843498457E-04
  4.05882092758E-04  4.09961275606E-04  4.14081454924E-04  4.18243042733E-04
  4.22446455194E-04  4.26692112653E-04  4.30980439678E-04  4.35311865107E-04
  4.39686822085E-04  4.44105748112E-04  4.48569085084E-04  4.53077279337E-04
  4.57630781697E-04  4.62230047516E-04  4.66875536725E-04  4.71567713876E-04
  4.76307048192E-04  4.81094013610E-04  4.85929088830E-04  4.90812757364E-04
  4.95745507582E-04  5.00727832765E-04  5.05760231148E-04  5.10843205975E-04
  5.15977265549E-04  5.21162923279E-04  5.26400697736E-04  5.31691112702E-04
  5.37034697222E-04  5.42431985659E-04  5.47883517746E-04  5.53389838642E-04
  5.58951498983E-04  5.64569054940E-04  5.70243068273E-04  5.75974106388E-04
  5.81762742393E-04  5.87609555157E-04  5.93515129367E-04  5.99480055584E-04
  6.05504930306E-04  6.11590356026E-04  6.17736941291E-04  6.23945300765E-04
  6.30216055289E-04  6.36549831944E-04  6.42947264113E-04  6.49408991543E-04
  6.55935660414E-04  6.62527923398E-04  6.69186439726E-04  6.75911875256E-04
  6.82704902536E-04  6.89566200876E-04  6.96496456410E-04  7.03496362171E-04
  7.10566618154E-04  7.17707931390E-04  7.24921016019E-04  7.32206593352E-04
  7.39565391956E-04  7.46998147715E-04  7.54505603911E-04  7.62088511296E-04
  7.69747628167E-04  7.77483720443E-04  7.85297561739E-04  7.93189933445E-04
  8.01161624806E-04  8.09213432996E-04  8.17346163205E-04  8.25560628710E-04
  8.33857650967E-04  8.42238059684E-04  8.50702692908E-04  8.59252397111E-04
  8.67888027269E-04  8.76610446954E-04  8.85420528413E-04  8.94319152664E-04
  9.03307209575E-04  9.12385597959E-04  9.21555225664E-04  9.30817009659E-04
  9.40171876131E-04  9.49620760574E-04  9.59164607884E-04  9.68804372455E-04
  9.78541018270E-04  9.88375519002E-04  9.98308858110E-04  1.00834202894E-03
  1.01847603480E-03  1.02871188913E-03  1.03905061549E-03  1.04949324779E-03
  1.06004083028E-03  1.07069441774E-03  1.08145507554E-03  1.09232387974E-03
  1.10330191724E-03  1.11439028585E-03  1.12559009442E-03  1.13690246294E-03
  1.14832852265E-03  1.15986941617E-03  1.17152629760E-03  1.18330033263E-03
  1.19519269869E-03  1.20720458501E-03  1.21933719279E-03  1.23159173531E-03
  1.24396943803E-03  1.25647153873E-03  1.26909928763E-03  1.28185394752E-03
  1.29473679387E-03  1.30774911498E-03  1.32089221209E-03  1.33416739952E-03
  1.34757600480E-03  1.36111936881E-03  1.37479884589E-03  1.38861580399E-03
  1.40257162484E-03  1.41666770402E-03  1.43090545114E-03  1.44528629001E-03
  1.45981165871E-03  1.47448300979E-03  1.48930181040E-03  1.50426954244E-03
  1.51938770268E-03  1.53465780295E-03  1.55008137029E-03  1.56565994706E-03
  1.58139509112E-03  1.59728837601E-03  1.61334139107E-03  1.62955574162E-03
  1.64593304909E-03  1.66247495125E-03  1.67918310228E-03  1.69605917302E-03
  1.71310485110E-03  1.73032184108E-03  1.74771186469E-03  1.76527666095E-03
  1.78301798634E-03  1.80093761502E-03  1.81903733896E-03  1.83731896815E-03
  1.85578433076E-03  1.87443527336E-03  1.89327366105E-03  1.91230137768E-03
  1.93152032604E-03  1.95093242804E-03  1.97053962491E-03  1.99034387739E-03
  2.01034716591E-03  2.03055149082E-03  2.05095887258E-03  2.07157135193E-03
  2.09239099015E-03  2.11341986920E-03  2.13466009201E-03  2.15611378260E-03
  2.17778308637E-03  2.19967017026E-03  2.22177722300E-03  2.24410645531E-03
  2.26666010015E-03  2.28944041287E-03  2.31244967155E-03  2.33569017713E-03
  2.35916425366E-03  2.38287424859E-03  2.40682253293E-03  2.43101150153E-03
  2.45544357330E-03  2.48012119148E-03  2.50504682384E-03  2.53022296298E-03
  2.55565212651E-03  2.58133685740E-03  2.60727972411E-03  2.63348332097E-03
  2.65995026836E-03  2.68668321300E-03  2.71368482819E-03  2.74095781413E-03
  2.76850489813E-03  2.79632883493E-03  2.82443240694E-03  2.85281842455E-03
  2.88148972638E-03  2.91044917958E-03  2.93969968012E-03  2.96924415309E-03
  2.99908555294E-03  3.02922686384E-03  3.05967109996E-03  3.09042130574E-03
  3.12148055622E-03  3.15285195736E-03  3.18453864633E-03  3.21654379181E-03
  3.24887059435E-03  3.28152228666E-03  3.31450213393E-03  3.34781343417E-03
  3.38145951856E-03  3.41544375170E-03  3.44976953208E-03  3.48444029228E-03
  3.51945949941E-03  3.55483065542E-03  3.59055729747E-03  3.62664299823E-03
  3.66309136632E-03  3.69990604659E-03  3.73709072056E-03  3.77464910671E-03
  3.81258496091E-03  3.85090207679E-03  3.88960428609E-03  3.92869545906E-03
  3.96817950484E-03  4.00806037189E-03  4.04834204831E-03  4.08902856231E-03
  4.13012398257E-03  4.17163241867E-03  4.21355802149E-03  4.25590498363E-03
  4.29867753981E-03  4.34187996733E-03  4.38551658646E-03  4.42959176090E-03
  4.47410989821E-03  4.51907545024E-03  4.56449291358E-03  4.61036683002E-03
  4.65670178698E-03  4.70350241800E-03  4.75077340318E-03  4.79851946966E-03
  4.84674539209E-03  4.89545599309E-03  4.94465614378E-03  4.99435076420E-03
  5.04454482385E-03  5.09524334220E-03  5.14645138912E-03  5.19817408547E-03
  5.25041660356E-03  5.30318416769E-03  5.35648205466E-03  5.41031559429E-03
  5.46469016999E-03  5.51961121926E-03  5.57508423425E-03  5.63111476232E-03
  5.68770840655E-03  5.74487082636E-03  5.80260773804E-03  5.86092491533E-03
  5.91982819000E-03  5.97932345242E-03  6.03941665216E-03  6.10011379861E-03
  6.16142096152E-03  6.22334427166E-03  6.28588992141E-03  6.34906416539E-03
  6.41287332108E-03  6.47732376945E-03  6.54242195559E-03  6.60817438938E-03
  6.67458764611E-03  6.74166836718E-03  6.80942326069E-03  6.87785910221E-03
  6.94698273537E-03  7.01680107259E-03  7.08732109576E-03  7.15854985696E-03
  7.23049447910E-03  7.30316215672E-03  7.37656015663E-03  7.45069581871E-03
  7.52557655658E-03  7.60120985838E-03  7.67760328750E-03  7.75476448335E-03
  7.83270116210E-03  7.91142111750E-03  7.99093222161E-03  8.07124242559E-03
  8.15235976055E-03  8.23429233827E-03  8.31704835209E-03  8.40063607767E-03
  8.48506387387E-03  8.57034018352E-03  8.65647353433E-03  8.74347253971E-03
  8.83134589963E-03  8.92010240150E-03  9.00975092105E-03  9.10030042319E-03
  9.19175996296E-03  9.28413868638E-03  9.37744583141E-03  9.47169072884E-03
  9.56688280324E-03  9.66303157388E-03  9.76014665574E-03  9.85823776040E-03
  9.95731469704E-03  1.00573873735E-02  1.01584657970E-02  1.02605600756E-02
  1.03636804187E-02  1.04678371385E-02  1.05730406508E-02  1.06793014759E-02
  1.07866302401E-02  1.08950376763E-02  1.10045346253E-02  1.11151320370E-02
  1.12268409711E-02  1.13396725987E-02  1.14536382030E-02  1.15687491806E-02
  1.16850170429E-02  1.18024534165E-02  1.19210700454E-02  1.20408787911E-02
  1.21618916348E-02  1.22841206778E-02  1.24075781431E-02  1.25322763766E-02
  1.26582278481E-02  1.27854451530E-02  1.29139410130E-02  1.30437282779E-02
  1.31748199265E-02  1.33072290681E-02  1.34409689436E-02  1.35760529273E-02
  1.37124945275E-02  1.38503073887E-02  1.39895052921E-02  1.41301021577E-02
  1.42721120453E-02  1.44155491560E-02  1.45604278336E-02  1.47067625662E-02
  1.48545679872E-02  1.50038588775E-02  1.51546501661E-02  1.53069569324E-02
  1.54607944071E-02  1.56161779741E-02  1.57731231720E-02  1.59316456953E-02
  1.60917613965E-02  1.62534862872E-02  1.64168365401E-02  1.65818284903E-02
  1.67484786372E-02  1.69168036459E-02  1.70868203491E-02  1.72585457485E-02
  1.74319970169E-02  1.76071914995E-02  1.77841467160E-02  1.79628803619E-02
  1.81434103109E-02  1.83257546160E-02  1.85099315118E-02  1.86959594162E-02
  1.88838569322E-02  1.90736428495E-02  1.92653361471E-02  1.94589559943E-02
  1.96545217533E-02  1.98520529809E-02  2.00515694303E-02  2.02530910534E-02
  2.04566380024E-02  2.06622306323E-02  2.08698895025E-02  2.10796353791E-02
  2.12914892367E-02  2.15054722610E-02  2.17216058504E-02  2.19399116186E-02
  2.21604113962E-02  2.23831272333E-02  2.26080814019E-02  2.28352963974E-02
  2.30647949417E-02  2.32965999846E-02  2.35307347069E-02  2.37672225223E-02
  2.40060870798E-02  2.42473522660E-02  2.44910422076E-02  2.47371812739E-02
  2.49857940789E-02  2.52369054841E-02  2.54905406009E-02  2.57467247930E-02
  2.60054836790E-02  2.62668431351E-02  2.65308292974E-02  2.67974685647E-02
  2.70667876012E-02  2.73388133390E-02  2.76135729810E-02  2.78910940032E-02
  2.81714041581E-02  2.84545314769E-02  2.87405042726E-02  2.90293511426E-02
  2.93211009719E-02  2.96157829358E-02  2.99134265026E-02  3.02140614370E-02
  3.05177178027E-02  3.08244259657E-02  3.11342165969E-02  3.14471206758E-02
  3.17631694929E-02  3.20823946534E-02  3.24048280801E-02  3.27305020167E-02
  3.30594490307E-02  3.33917020171E-02  3.37272942016E-02  3.40662591437E-02
  3.44086307400E-02  3.47544432281E-02  3.51037311894E-02  3.54565295532E-02
  3.58128735994E-02  3.61727989628E-02  3.65363416363E-02  3.69035379744E-02
  3.72744246970E-02  3.76490388932E-02  3.80274180246E-02  3.84095999296E-02
  3.87956228265E-02  3.91855253180E-02  3.95793463948E-02  3.99771254391E-02
  4.03789022293E-02  4.07847169434E-02  4.11946101632E-02  4.16086228783E-02
  4.20267964903E-02  4.24491728171E-02  4.28757940965E-02  4.33067029910E-02
  4.37419425919E-02  4.41815564236E-02  4.46255884477E-02  4.50740830678E-02
  4.55270851338E-02  4.59846399462E-02  4.64467932610E-02  4.69135912938E-02
  4.73850807248E-02  4.78613087034E-02  4.83423228527E-02  4.88281712746E-02
  4.93189025544E-02  4.98145657654E-02  5.03152104746E-02  5.08208867468E-02
  5.13316451499E-02  5.18475367604E-02  5.23686131677E-02  5.28949264800E-02
  5.34265293291E-02  5.39634748756E-02  5.45058168145E-02  5.50536093805E-02
  5.56069073534E-02  5.61657660633E-02  5.67302413967E-02  5.73003898014E-02
  5.78762682929E-02  5.84579344595E-02  5.90454464682E-02  5.96388630708E-02
  6.02382436093E-02  6.08436480225E-02  6.14551368511E-02  6.20727712446E-02
  6.26966129670E-02  6.33267244030E-02  6.39631685641E-02  6.46060090954E-02
  6.52553102815E-02  6.59111370529E-02  6.65735549930E-02  6.72426303441E-02
  6.79184300142E-02  6.86010215839E-02  6.92904733130E-02  6.99868541471E-02
  7.06902337250E-02  7.14006823852E-02  7.21182711731E-02  7.28430718482E-02
  7.35751568912E-02  7.43145995112E-02  7.50614736531E-02  7.58158540048E-02
  7.65778160052E-02  7.73474358510E-02  7.81247905049E-02  7.89099577028E-02
  7.97030159624E-02  8.05040445899E-02  8.13131236890E-02  8.21303341682E-02
  8.29557577493E-02  8.37894769752E-02  8.46315752187E-02  8.54821366903E-02
  8.63412464467E-02  8.72089903998E-02  8.80854553245E-02  8.89707288682E-02
  8.98648995589E-02  9.07680568145E-02  9.16802909514E-02  9.26016931938E-02
  9.35323556827E-02  9.44723714851E-02  9.54218346033E-02  9.63808399846E-02
  9.73494835301E-02  9.83278621051E-02  9.93160735483E-02  1.00314216682E-01
  1.01322391320E-01  1.02340698282E-01  1.03369239400E-01  1.04408117527E-01
  1.05457436553E-01  1.06517301411E-01  1.07587818087E-01  1.08669093635E-01
  1.09761236183E-01  1.10864354946E-01  1.11978560237E-01  1.13103963477E-01
  1.14240677208E-01  1.15388815102E-01  1.16548491973E-01  1.17719823791E-01
  1.18902927689E-01  1.20097921979E-01  1.21304926162E-01  1.22524060938E-01
  1.23755448222E-01  1.24999211154E-01  1.26255474112E-01  1.27524362722E-01
  1.28806003874E-01  1.30100525735E-01  1.31408057756E-01  1.32728730693E-01
  1.34062676613E-01  1.35410028913E-01  1.36770922328E-01  1.38145492950E-01
  1.39533878236E-01  1.40936217026E-01  1.42352649555E-01  1.43783317468E-01
  1.45228363833E-01  1.46687933155E-01  1.48162171392E-01  1.49651225970E-01
  1.51155245796E-01  1.52674381271E-01  1.54208784313E-01  1.55758608361E-01
  1.57324008400E-01  1.58905140970E-01  1.60502164188E-01  1.62115237755E-01
  1.63744522982E-01  1.65390182797E-01  1.67052381768E-01  1.68731286116E-01
  1.70427063734E-01  1.72139884200E-01  1.73869918798E-01  1.75617340533E-01
  1.77382324149E-01  1.79165046144E-01  1.80965684793E-01  1.82784420162E-01
  1.84621434125E-01  1.86476910385E-01  1.88351034492E-01  1.90243993859E-01
  1.92155977784E-01  1.94087177467E-01  1.96037786030E-01  1.98007998534E-01
  1.99998012003E-01  2.02008025440E-01  2.04038239848E-01  2.06088858250E-01
  2.08160085710E-01  2.10252129352E-01  2.12365198382E-01  2.14499504108E-01
  2.16655259964E-01  2.18832681526E-01  2.21031986539E-01  2.23253394935E-01
  2.25497128856E-01  2.27763412678E-01  2.30052473031E-01  2.32364538823E-01
  2.34699841263E-01  2.37058613882E-01  2.39441092560E-01  2.41847515547E-01
  2.44278123487E-01  2.46733159443E-01  2.49212868921E-01  2.51717499893E-01
  2.54247302825E-01  2.56802530699E-01  2.59383439040E-01  2.61990285942E-01
  2.64623332090E-01  2.67282840792E-01  2.69969078000E-01  2.72682312342E-01
  2.75422815142E-01  2.78190860453E-01  2.80986725082E-01  2.83810688617E-01
  2.86663033458E-01  2.89544044841E-01  2.92454010870E-01  2.95393222544E-01
  2.98361973786E-01  3.01360561474E-01  3.04389285469E-01  3.07448448647E-01
  3.10538356925E-01  3.13659319299E-01  3.16811647865E-01  3.19995657860E-01
  3.23211667688E-01  3.26459998952E-01  3.29740976488E-01  3.33054928396E-01
  3.36402186074E-01  3.39783084252E-01  3.43197961021E-01  3.46647157872E-01
  3.50131019728E-01  3.53649894978E-01  3.57204135512E-01  3.60794096757E-01
  3.64420137712E-01  3.68082620985E-01  3.71781912826E-01  3.75518383169E-01
  3.79292405663E-01  3.83104357714E-01  3.86954620520E-01  3.90843579110E-01
  3.94771622384E-01  3.98739143149E-01  4.02746538160E-01  4.06794208161E-01
  4.10882557922E-01  4.15011996281E-01  4.19182936186E-01  4.23395794733E-01
  4.27650993213E-01  4.31948957149E-01  4.36290116340E-01  4.40674904906E-01
  4.45103761330E-01  4.49577128502E-01  4.54095453760E-01  4.58659188943E-01
  4.63268790426E-01  4.67924719175E-01  4.72627440785E-01  4.77377425534E-01
  4.82175148423E-01  4.87021089228E-01  4.91915732549E-01  4.96859567852E-01
  5.01853089526E-01  5.06896796928E-01  5.11991194431E-01  5.17136791481E-01
  5.22334102641E-01  5.27583647646E-01  5.32885951456E-01  5.38241544305E-01
  5.43650961756E-01  5.49114744758E-01  5.54633439691E-01  5.60207598430E-01
  5.65837778396E-01  5.71524542612E-01  5.77268459758E-01  5.83070104231E-01
  5.88930056200E-01  5.94848901666E-01  6.00827232517E-01  6.06865646593E-01
  6.12964747739E-01  6.19125145870E-01  6.25347457032E-01  6.31632303461E-01
  6.37980313646E-01  6.44392122395E-01  6.50868370893E-01  6.57409706770E-01
  6.64016784166E-01  6.70690263793E-01  6.77430813006E-01  6.84239105865E-01
  6.91115823204E-01  6.98061652702E-01  7.05077288947E-01  7.12163433508E-01
  7.19320795006E-01  7.26550089183E-01  7.33852038974E-01  7.41227374581E-01
  7.48676833543E-01  7.56201160812E-01  7.63801108827E-01  7.71477437590E-01
  7.79230914740E-01  7.87062315630E-01  7.94972423408E-01  8.02962029090E-01
  8.11031931645E-01  8.19182938068E-01  8.27415863468E-01  8.35731531144E-01
  8.44130772670E-01  8.52614427976E-01  8.61183345436E-01  8.69838381947E-01
  8.78580403022E-01  8.87410282869E-01  8.96328904485E-01  9.05337159737E-01
  9.14435949460E-01  9.23626183540E-01  9.32908781008E-01  9.42284670131E-01
  9.51754788507E-01  9.61320083154E-01  9.70981510611E-01  9.80740037029E-01
  9.90596638267E-01  1.00055229999E+00  1.01060801779E+00  1.02076479722E+00
  1.03102365399E+00  1.04138561398E+00  1.05185171340E+00  1.06242299886E+00
  1.07310052752E+00  1.08388536712E+00  1.09477859616E+00  1.10578130397E+00
  1.11689459083E+00  1.12811956808E+00  1.13945735823E+00  1.15090909507E+00
  1.16247592377E+00  1.17415900104E+00  1.18595949518E+00  1.19787858626E+00
  1.20991746620E+00  1.22207733890E+00  1.23435942034E+00  1.24676493876E+00
  1.25929513471E+00  1.27195126122E+00  1.28473458392E+00  1.29764638115E+00
  1.31068794409E+00  1.32386057693E+00  1.33716559692E+00  1.35060433459E+00
  1.36417813382E+00  1.37788835199E+00  1.39173636015E+00  1.40572354311E+00
  1.41985129959E+00  1.43412104239E+00  1.44853419848E+00  1.46309220920E+00
  1.47779653037E+00  1.49264863241E+00  1.50765000057E+00  1.52280213498E+00
  1.53810655087E+00  1.55356477870E+00  1.56917836430E+00  1.58494886905E+00
  1.60087787000E+00  1.61696696008E+00  1.63321774819E+00  1.64963185945E+00
  1.66621093526E+00  1.68295663356E+00  1.69987062892E+00  1.71695461277E+00
  1.73421029350E+00  1.75163939671E+00  1.76924366532E+00  1.78702485977E+00
  1.80498475819E+00  1.82312515659E+00  1.84144786903E+00  1.85995472779E+00
  1.87864758358E+00  1.89752830568E+00  1.91659878220E+00  1.93586092020E+00
  1.95531664590E+00  1.97496790489E+00  1.99481666232E+00  2.01486490308E+00
  2.03511463201E+00  2.05556787409E+00  2.07622667468E+00  2.09709309967E+00
  2.11816923571E+00  2.13945719044E+00  2.16095909267E+00  2.18267709262E+00
  2.20461336209E+00  2.22677009474E+00  2.24914950625E+00  2.27175383458E+00
  2.29458534019E+00  2.31764630625E+00  2.34093903887E+00  2.36446586734E+00
  2.38822914438E+00  2.41223124631E+00  2.43647457338E+00  2.46096154994E+00
  2.48569462471E+00  2.51067627100E+00  2.53590898702E+00  2.56139529605E+00
  2.58713774675E+00  2.61313891337E+00  2.63940139606E+00  2.66592782110E+00
  2.69272084113E+00  2.71978313550E+00  2.74711741044E+00  2.77472639942E+00
  2.80261286334E+00  2.83077959089E+00  2.85922939876E+00  2.88796513195E+00
  2.91698966406E+00  2.94630589757E+00  2.97591676412E+00  3.00582522482E+00
  3.03603427056E+00  3.06654692225E+00  3.09736623119E+00  3.12849527934E+00
  3.15993717962E+00  3.19169507625E+00  3.22377214504E+00  3.25617159374E+00
  3.28889666232E+00  3.32195062329E+00  3.35533678210E+00  3.38905847739E+00
  3.42311908134E+00  3.45752200006E+00  3.49227067386E+00  3.52736857763E+00
  3.56281922121E+00  3.59862614967E+00  3.63479294375E+00  3.67132322015E+00
  3.70822063193E+00  3.74548886887E+00  3.78313165781E+00  3.82115276307E+00
  3.85955598680E+00  3.89834516933E+00  3.93752418964E+00  3.97709696564E+00
  4.01706745466E+00  4.05743965376E+00  4.09821760022E+00  4.13940537185E+00
  4.18100708746E+00  4.22302690727E+00  4.26546903329E+00  4.30833770977E+00
  4.35163722361E+00  4.39537190479E+00  4.43954612683E+00  4.48416430719E+00
  4.52923090771E+00  4.57475043509E+00  4.62072744133E+00  4.66716652417E+00
  4.71407232755E+00  4.76144954209E+00  4.80930290555E+00  4.85763720331E+00
  4.90645726883E+00  4.95576798418E+00  5.00557428045E+00  5.05588113832E+00
  5.10669358852E+00  5.15801671233E+00  5.20985564211E+00  5.26221556180E+00
  5.31510170743E+00  5.36851936766E+00  5.42247388429E+00  5.47697065284E+00
  5.53201512302E+00  5.58761279932E+00  5.64376924155E+00  5.70049006541E+00
  5.75778094303E+00  5.81564760354E+00  5.87409583366E+00  5.93313147826E+00
  5.99276044095E+00  6.05298868467E+00  6.11382223231E+00  6.17526716727E+00
  6.23732963409E+00  6.30001583907E+00  6.36333205089E+00  6.42728460121E+00
  6.49187988535E+00  6.55712436289E+00  6.62302455833E+00  6.68958706174E+00
  6.75681852944E+00  6.82472568462E+00  6.89331531805E+00  6.96259428876E+00
  7.03256952470E+00  7.10324802346E+00  7.17463685293E+00  7.24674315207E+00
  7.31957413157E+00  7.39313707457E+00  7.46743933745E+00  7.54248835048E+00
  7.61829161863E+00  7.69485672230E+00  7.77219131804E+00  7.85030313940E+00
  7.92919999761E+00  8.00888978243E+00  8.08938046291E+00  8.17068008817E+00
  8.25279678824E+00  8.33573877488E+00  8.41951434233E+00  8.50413186824E+00
  8.58959981442E+00  8.67592672774E+00  8.76312124097E+00  8.85119207362E+00
  8.94014803285E+00  9.02999801434E+00  9.12075100315E+00  9.21241607467E+00
  9.30500239547E+00  9.39851922426E+00  9.49297591281E+00  9.58838190686E+00
  9.68474674709E+00  9.78208007007E+00  9.88039160920E+00  9.97969119573E+00
  1.00799887597E+01  1.01812943309E+01  1.02836180401E+01  1.03869701196E+01
  1.04913609048E+01  1.05968008349E+01  1.07033004538E+01  1.08108704117E+01
  1.09195214657E+01  1.10292644809E+01  1.11401104317E+01  1.12520704029E+01
  1.13651555905E+01  1.14793773031E+01  1.15947469631E+01  1.17112761073E+01
  1.18289763890E+01  1.19478595781E+01  1.20679375632E+01  1.21892223521E+01