<PP_INFO>
Generated using Vanderbilt code, version   7  3  2                              
Author: Yi Yao    Generation date:    0    0    0                               
Automatically converted from original format                                    
    0        The Pseudo was generated with a Non-Relativistic Calculation
nl pn  l   occ               Rcut            Rcut US             E pseu
0S  0  0  2.00      0.00000000000      0.00000000000      0.00000000000
0P  0  1  1.00      0.00000000000      0.00000000000      0.00000000000
</PP_INFO>


<PP_HEADER>
   0                   Version Number
   B                   Element
   NC                  Norm - Conserving pseudopotential
    F                  Nonlinear Core Correction
 SLA  PW   SCAN SCAN   SCAN Exchange-Correlation functional
    3.00000000000      Z valence
    0.00000000000      Total energy
    0.00000    0.00000 Suggested cutoff for wfc and rho
    0                  Max angular momentum component
 1371                  Number of points in mesh
    2    1             Number of Wavefunctions, Number of Projectors
 Wavefunctions         nl  l   occ
                       0S  0  2.00
                       0P  1  1.00
</PP_HEADER>


<PP_MESH>
  <PP_R>
  6.70925255805E-05  6.77668166727E-05  6.84478845030E-05  6.91357971788E-05
  6.98306234920E-05  7.05324329257E-05  7.12412956614E-05  7.19572825861E-05
  7.26804652990E-05  7.34109161190E-05  7.41487080918E-05  7.48939149972E-05
  7.56466113565E-05  7.64068724400E-05  7.71747742744E-05  7.79503936506E-05
  7.87338081310E-05  7.95250960579E-05  8.03243365607E-05  8.11316095640E-05
  8.19469957960E-05  8.27705767958E-05  8.36024349222E-05  8.44426533618E-05
  8.52913161371E-05  8.61485081151E-05  8.70143150157E-05  8.78888234204E-05
  8.87721207806E-05  8.96642954268E-05  9.05654365774E-05  9.14756343470E-05
  9.23949797563E-05  9.33235647406E-05  9.42614821592E-05  9.52088258045E-05
  9.61656904117E-05  9.71321716681E-05  9.81083662226E-05  9.90943716955E-05
  1.00090286688E-04  1.01096210793E-04  1.02112244603E-04  1.03138489722E-04
  1.04175048777E-04  1.05222025423E-04  1.06279524360E-04  1.07347651337E-04
  1.08426513169E-04  1.09516217743E-04  1.10616874030E-04  1.11728592096E-04
  1.12851483115E-04  1.13985659376E-04  1.15131234297E-04  1.16288322439E-04
  1.17457039509E-04  1.18637502381E-04  1.19829829103E-04  1.21034138907E-04
  1.22250552226E-04  1.23479190702E-04  1.24720177200E-04  1.25973635820E-04
  1.27239691908E-04  1.28518472071E-04  1.29810104189E-04  1.31114717425E-04
  1.32432442242E-04  1.33763410414E-04  1.35107755039E-04  1.36465610551E-04
  1.37837112739E-04  1.39222398752E-04  1.40621607121E-04  1.42034877769E-04
  1.43462352022E-04  1.44904172630E-04  1.46360483776E-04  1.47831431093E-04
  1.49317161675E-04  1.50817824099E-04  1.52333568430E-04  1.53864546245E-04
  1.55410910644E-04  1.56972816262E-04  1.58550419293E-04  1.60143877498E-04
  1.61753350225E-04  1.63378998421E-04  1.65020984653E-04  1.66679473121E-04
  1.68354629676E-04  1.70046621833E-04  1.71755618795E-04  1.73481791461E-04
  1.75225312452E-04  1.76986356119E-04  1.78765098570E-04  1.80561717679E-04
  1.82376393111E-04  1.84209306334E-04  1.86060640641E-04  1.87930581167E-04
  1.89819314908E-04  1.91727030739E-04  1.93653919432E-04  1.95600173679E-04
  1.97565988106E-04  1.99551559297E-04  2.01557085810E-04  2.03582768199E-04
  2.05628809035E-04  2.07695412923E-04  2.09782786526E-04  2.11891138582E-04
  2.14020679928E-04  2.16171623521E-04  2.18344184456E-04  2.20538579992E-04
  2.22755029569E-04  2.24993754835E-04  2.27254979664E-04  2.29538930180E-04
  2.31845834781E-04  2.34175924158E-04  2.36529431323E-04  2.38906591628E-04
  2.41307642792E-04  2.43732824920E-04  2.46182380535E-04  2.48656554592E-04
  2.51155594512E-04  2.53679750201E-04  2.56229274077E-04  2.58804421093E-04
  2.61405448767E-04  2.64032617204E-04  2.66686189123E-04  2.69366429882E-04
  2.72073607510E-04  2.74807992724E-04  2.77569858967E-04  2.80359482427E-04
  2.83177142069E-04  2.86023119662E-04  2.88897699804E-04  2.91801169957E-04
  2.94733820471E-04  2.97695944612E-04  3.00687838596E-04  3.03709801614E-04
  3.06762135865E-04  3.09845146585E-04  3.12959142079E-04  3.16104433747E-04
  3.19281336122E-04  3.22490166897E-04  3.25731246958E-04  3.29004900414E-04
  3.32311454635E-04  3.35651240278E-04  3.39024591325E-04  3.42431845113E-04
  3.45873342371E-04  3.49349427252E-04  3.52860447367E-04  3.56406753820E-04
  3.59988701246E-04  3.63606647842E-04  3.67260955406E-04  3.70951989371E-04
  3.74680118844E-04  3.78445716642E-04  3.82249159327E-04  3.86090827246E-04
  3.89971104569E-04  3.93890379328E-04  3.97849043453E-04  4.01847492814E-04
  4.05886127259E-04  4.09965350655E-04  4.14085570928E-04  4.18247200103E-04
  4.22450654347E-04  4.26696354008E-04  4.30984723660E-04  4.35316192143E-04
  4.39691192609E-04  4.44110162560E-04  4.48573543897E-04  4.53081782963E-04
  4.57635330584E-04  4.62234642120E-04  4.66880177506E-04  4.71572401298E-04
  4.76311782723E-04  4.81098795724E-04  4.85933919005E-04  4.90817636083E-04
  4.95750435333E-04  5.00732810040E-04  5.05765258446E-04  5.10848283799E-04
  5.15982394405E-04  5.21168103682E-04  5.26405930203E-04  5.31696397755E-04
  5.37040035391E-04  5.42437377477E-04  5.47888963754E-04  5.53395339383E-04
  5.58957055007E-04  5.64574666803E-04  5.70248736536E-04  5.75979831618E-04
  5.81768525163E-04  5.87615396045E-04  5.93521028956E-04  5.99486014465E-04
  6.05510949075E-04  6.11596435285E-04  6.17743081647E-04  6.23951502833E-04
  6.30222319689E-04  6.36556159302E-04  6.42953655061E-04  6.49415446722E-04
  6.55942180469E-04  6.62534508980E-04  6.69193091494E-04  6.75918593875E-04
  6.82711688679E-04  6.89573055221E-04  6.96503379642E-04  7.03503354982E-04
  7.10573681244E-04  7.17715065466E-04  7.24928221793E-04  7.32213871546E-04
  7.39572743297E-04  7.47005572938E-04  7.54513103758E-04  7.62096086518E-04
  7.69755279522E-04  7.77491448695E-04  7.85305367661E-04  7.93197817818E-04
  8.01169588418E-04  8.09221476644E-04  8.17354287693E-04  8.25568834851E-04
  8.33865939581E-04  8.42246431599E-04  8.50711148963E-04  8.59260938150E-04
  8.67896654148E-04  8.76619160534E-04  8.85429329566E-04  8.94328042270E-04
  9.03316188523E-04  9.12394667147E-04  9.21564385999E-04  9.30826262057E-04
  9.40181221517E-04  9.49630199882E-04  9.59174142059E-04  9.68814002450E-04
  9.78550745048E-04  9.88385343536E-04  9.98318781382E-04  1.00835205194E-03
  1.01848615854E-03  1.02872211461E-03  1.03906094374E-03  1.04950367984E-03
  1.06005136717E-03  1.07070506053E-03  1.08146582529E-03  1.09233473753E-03
  1.10331288415E-03  1.11440136298E-03  1.12560128288E-03  1.13691376384E-03
  1.14833993713E-03  1.15988094537E-03  1.17153794267E-03  1.18331209474E-03
  1.19520457900E-03  1.20721658472E-03  1.21934931310E-03  1.23160397743E-03
  1.24398180319E-03  1.25648402816E-03  1.26911190258E-03  1.28186668925E-03
  1.29474966366E-03  1.30776211411E-03  1.32090534186E-03  1.33418066125E-03
  1.34758939982E-03  1.36113289845E-03  1.37481251150E-03  1.38862960695E-03
  1.40258556652E-03  1.41668178581E-03  1.43091967446E-03  1.44530065628E-03
  1.45982616936E-03  1.47449766627E-03  1.48931661418E-03  1.50428449500E-03
  1.51940280552E-03  1.53467305758E-03  1.55009677823E-03  1.56567550985E-03
  1.58141081032E-03  1.59730425319E-03  1.61335742782E-03  1.62957193954E-03
  1.64594940980E-03  1.66249147638E-03  1.67919979350E-03  1.69607603199E-03
  1.71312187950E-03  1.73033904062E-03  1.74772923709E-03  1.76529420795E-03
  1.78303570969E-03  1.80095551649E-03  1.81905542034E-03  1.83733723125E-03
  1.85580277741E-03  1.87445390540E-03  1.89329248034E-03  1.91232038611E-03
  1.93153952551E-03  1.95095182047E-03  1.97055921224E-03  1.99036366157E-03
  2.01036714893E-03  2.03057167467E-03  2.05097925928E-03  2.07159194352E-03
  2.09241178869E-03  2.11344087677E-03  2.13468131070E-03  2.15613521455E-03
  2.17780473371E-03  2.19969203516E-03  2.22179930765E-03  2.24412876192E-03
  2.26668263093E-03  2.28946317010E-03  2.31247265749E-03  2.33571339408E-03
  2.35918770395E-03  2.38289793456E-03  2.40684645694E-03  2.43103566598E-03
  2.45546798061E-03  2.48014584409E-03  2.50507172421E-03  2.53024811360E-03
  2.55567752991E-03  2.58136251610E-03  2.60730564069E-03  2.63350949802E-03
  2.65997670849E-03  2.68670991885E-03  2.71371180244E-03  2.74098505947E-03
  2.76853241730E-03  2.79635663067E-03  2.82446048203E-03  2.85284678180E-03
  2.88151836862E-03  2.91047810968E-03  2.93972890098E-03  2.96927366762E-03
  2.99911536410E-03  3.02925697461E-03  3.05970151335E-03  3.09045202478E-03
  3.12151158400E-03  3.15288329697E-03  3.18457030090E-03  3.21657576452E-03
  3.24890288839E-03  3.28155490526E-03  3.31453508035E-03  3.34784671172E-03
  3.38149313054E-03  3.41547770150E-03  3.44980382307E-03  3.48447492790E-03
  3.51949448312E-03  3.55486599073E-03  3.59059298790E-03  3.62667904736E-03
  3.66312777775E-03  3.69994282396E-03  3.73712786755E-03  3.77468662703E-03
  3.81262285832E-03  3.85094035508E-03  3.88964294908E-03  3.92873451061E-03
  3.96821894887E-03  4.00810021234E-03  4.04838228916E-03  4.08906920759E-03
  4.13016503634E-03  4.17167388504E-03  4.21359990461E-03  4.25594728768E-03
  4.29872026902E-03  4.34192312597E-03  4.38556017885E-03  4.42963579141E-03
  4.47415437123E-03  4.51912037022E-03  4.56453828502E-03  4.61041265745E-03
  4.65674807498E-03  4.70354917120E-03  4.75082062626E-03  4.79856716734E-03
  4.84679356914E-03  4.89550465433E-03  4.94470529407E-03  4.99440040846E-03
  5.04459496705E-03  5.09529398934E-03  5.14650254527E-03  5.19822575575E-03
  5.25046879314E-03  5.30323688178E-03  5.35653529853E-03  5.41036937327E-03
  5.46474448946E-03  5.51966608465E-03  5.57513965105E-03  5.63117073606E-03
  5.68776494284E-03  5.74492793085E-03  5.80266541644E-03  5.86098317341E-03
  5.91988703358E-03  5.97938288739E-03  6.03947668446E-03  6.10017443424E-03
  6.16148220655E-03  6.22340613221E-03  6.28595240367E-03  6.34912727561E-03
  6.41293706557E-03  6.47738815458E-03  6.54248698780E-03  6.60824007518E-03
  6.67465399207E-03  6.74173537991E-03  6.80949094692E-03  6.87792746869E-03
  6.94705178895E-03  7.01687082017E-03  7.08739154432E-03  7.15862101353E-03
  7.23056635081E-03  7.30323475075E-03  7.37663348025E-03  7.45076987924E-03
  7.52565136144E-03  7.60128541503E-03  7.67767960351E-03  7.75484156634E-03
  7.83277901980E-03  7.91149975768E-03  7.99101165213E-03  8.07132265441E-03
  8.15244079567E-03  8.23437418781E-03  8.31713102423E-03  8.40071958069E-03
  8.48514821610E-03  8.57042537341E-03  8.65655958039E-03  8.74355945055E-03
  8.83143368394E-03  8.92019106805E-03  9.00984047871E-03  9.10039088092E-03
  9.19185132981E-03  9.28423097149E-03  9.37753904400E-03  9.47178487823E-03
  9.56697789884E-03  9.66312762521E-03  9.76024367240E-03  9.85833575209E-03
  9.95741367357E-03  1.00574873447E-02  1.01585667730E-02  1.02606620664E-02
  1.03637834345E-02  1.04679411897E-02  1.05731457477E-02  1.06794076290E-02
  1.07867374601E-02  1.08951459738E-02  1.10046440113E-02  1.11152425223E-02
  1.12269525668E-02  1.13397853160E-02  1.14537520531E-02  1.15688641750E-02
  1.16851331929E-02  1.18025707339E-02  1.19211885418E-02  1.20409984785E-02
  1.21620125250E-02  1.22842427830E-02  1.24077014755E-02  1.25324009484E-02
  1.26583536719E-02  1.27855722413E-02  1.29140693786E-02  1.30438579336E-02
  1.31749508853E-02  1.33073613430E-02  1.34411025479E-02  1.35761878744E-02
  1.37126308309E-02  1.38504450619E-02  1.39896443489E-02  1.41302426121E-02
  1.42722539113E-02  1.44156924478E-02  1.45605725655E-02  1.47069087526E-02
  1.48547156429E-02  1.50040080171E-02  1.51548008046E-02  1.53071090848E-02
  1.54609480887E-02  1.56163332002E-02  1.57732799581E-02  1.59318040572E-02
  1.60919213499E-02  1.62536478482E-02  1.64169997248E-02  1.65819933150E-02
  1.67486451184E-02  1.69169718003E-02  1.70869901935E-02  1.72587172999E-02
  1.74321702924E-02  1.76073665165E-02  1.77843234919E-02  1.79630589144E-02
  1.81435906579E-02  1.83259367755E-02  1.85101155021E-02  1.86961452556E-02
  1.88840446393E-02  1.90738324431E-02  1.92655276461E-02  1.94591494179E-02
  1.96547171209E-02  1.98522503119E-02  2.00517687446E-02  2.02532923708E-02
  2.04568413431E-02  2.06624360166E-02  2.08700969510E-02  2.10798449124E-02
  2.12917008759E-02  2.15056860272E-02  2.17218217650E-02  2.19401297031E-02
  2.21606316725E-02  2.23833497235E-02  2.26083061281E-02  2.28355233822E-02
  2.30650242076E-02  2.32968315547E-02  2.35309686044E-02  2.37674587705E-02
  2.40063257023E-02  2.42475932867E-02  2.44912856506E-02  2.47374271635E-02
  2.49860424397E-02  2.52371563410E-02  2.54907939790E-02  2.57469807176E-02
  2.60057421757E-02  2.62671042297E-02  2.65310930160E-02  2.67977349338E-02
  2.70670566473E-02  2.73390850891E-02  2.76138474622E-02  2.78913712430E-02
  2.81716841842E-02  2.84548143173E-02  2.87407899555E-02  2.90296396967E-02
  2.93213924261E-02  2.96160773191E-02  2.99137238445E-02  3.02143617673E-02
  3.05180211514E-02  3.08247323630E-02  3.11345260736E-02  3.14474332627E-02
  3.17634852214E-02  3.20827135550E-02  3.24051501868E-02  3.27308273605E-02
  3.30597776443E-02  3.33920339334E-02  3.37276294537E-02  3.40665977651E-02
  3.44089727646E-02  3.47547886901E-02  3.51040801234E-02  3.54568819940E-02
  3.58132295823E-02  3.61731585234E-02  3.65367048105E-02  3.69039047986E-02
  3.72747952079E-02  3.76494131277E-02  3.80277960203E-02  3.84099817242E-02
  3.87960084582E-02  3.91859148254E-02  3.95797398167E-02  3.99775228150E-02
  4.03793035989E-02  4.07851223468E-02  4.11950196410E-02  4.16090364714E-02
  4.20272142402E-02  4.24495947653E-02  4.28762202854E-02  4.33071334632E-02
  4.37423773904E-02  4.41819955919E-02  4.46260320297E-02  4.50745311079E-02
  4.55275376768E-02  4.59850970373E-02  4.64472549460E-02  4.69140576188E-02
  4.73855517364E-02  4.78617844488E-02  4.83428033794E-02  4.88286566307E-02
  4.93193927883E-02  4.98150609263E-02  5.03157106120E-02  5.08213919106E-02
  5.13321553907E-02  5.18480521292E-02  5.23691337161E-02  5.28954522600E-02
  5.34270603932E-02  5.39640112769E-02  5.45063586068E-02  5.50541566180E-02
  5.56074600906E-02  5.61663243557E-02  5.67308053000E-02  5.73009593720E-02
  5.78768435878E-02  5.84585155362E-02  5.90460333848E-02  5.96394558860E-02
  6.02388423824E-02  6.08442528133E-02  6.14557477202E-02  6.20733882531E-02
  6.26972361765E-02  6.33273538758E-02  6.39638043633E-02  6.46066512845E-02
  6.52559589246E-02  6.59117922150E-02  6.65742167396E-02  6.72432987413E-02
  6.79191051290E-02  6.86017034837E-02  6.92911620660E-02  6.99875498222E-02
  7.06909363918E-02  7.14013921138E-02  7.21189880346E-02  7.28437959143E-02
  7.35758882343E-02  7.43153382044E-02  7.50622197703E-02  7.58166076207E-02
  7.65785771950E-02  7.73482046909E-02  7.81255670717E-02  7.89107420743E-02
  7.97038082169E-02  8.05048448067E-02  8.13139319481E-02  8.21311505505E-02
  8.29565823363E-02  8.37903098495E-02  8.46324164635E-02  8.54829863897E-02
  8.63421046858E-02  8.72098572643E-02  8.80863309012E-02  8.89716132446E-02
  8.98657928234E-02  9.07689590565E-02  9.16812022610E-02  9.26026136622E-02
  9.35332854020E-02  9.44733105482E-02  9.54227831042E-02  9.63817980180E-02
  9.73504511920E-02  9.83288394922E-02  9.93170607583E-02  1.00315213813E-01
  1.01323398473E-01  1.02341715557E-01  1.03370266898E-01  1.04409155352E-01
  1.05458484809E-01  1.06518360201E-01  1.07588887519E-01  1.08670173815E-01
  1.09762327219E-01  1.10865456947E-01  1.11979673313E-01  1.13105087740E-01
  1.14241812770E-01  1.15389962076E-01  1.16549650475E-01  1.17720993936E-01
  1.18904109594E-01  1.20099115762E-01  1.21306131943E-01  1.22525278837E-01
  1.23756678361E-01  1.25000453657E-01  1.26256729101E-01  1.27525630324E-01
  1.28807284217E-01  1.30101818945E-01  1.31409363963E-01  1.32730050027E-01
  1.34064009207E-01  1.35411374900E-01  1.36772281842E-01  1.38146866127E-01
  1.39535265214E-01  1.40937617944E-01  1.42354064553E-01  1.43784746686E-01
  1.45229807415E-01  1.46689391245E-01  1.48163644136E-01  1.49652713516E-01
  1.51156748291E-01  1.52675898867E-01  1.54210317161E-01  1.55760156614E-01
  1.57325572213E-01  1.58906720501E-01  1.60503759592E-01  1.62116849194E-01
  1.63746150616E-01  1.65391826789E-01  1.67054042282E-01  1.68732963319E-01
  1.70428757793E-01  1.72141595285E-01  1.73871647080E-01  1.75619086184E-01
  1.77384087343E-01  1.79166827059E-01  1.80967483607E-01  1.82786237054E-01
  1.84623269277E-01  1.86478763981E-01  1.88352906717E-01  1.90245884900E-01
  1.92157887830E-01  1.94089106710E-01  1.96039734661E-01  1.98009966750E-01
  2.00000000000E-01  2.02010033417E-01  2.04040268005E-01  2.06090906791E-01
  2.08162154838E-01  2.10254219275E-01  2.12367309309E-01  2.14501636251E-01
  2.16657413535E-01  2.18834856741E-01  2.21034183615E-01  2.23255614092E-01
  2.25499370316E-01  2.27765676665E-01  2.30054759771E-01  2.32366848546E-01
  2.34702174198E-01  2.37060970264E-01  2.39443472624E-01  2.41849919531E-01
  2.44280551632E-01  2.46735611991E-01  2.49215346117E-01  2.51720001986E-01
  2.54249830064E-01  2.56805083338E-01  2.59386017333E-01  2.61992890147E-01
  2.64625962467E-01  2.67285497605E-01  2.69971761515E-01  2.72685022826E-01
  2.75425552867E-01  2.78193625693E-01  2.80989518113E-01  2.83813509719E-01
  2.86665882912E-01  2.89546922933E-01  2.92456917887E-01  2.95396158777E-01
  2.98364939528E-01  3.01363557023E-01  3.04392311124E-01  3.07451504710E-01
  3.10541443702E-01  3.13662437098E-01  3.16814796999E-01  3.19998838643E-01
  3.23214880439E-01  3.26463243991E-01  3.29744254140E-01  3.33058238989E-01
  3.36405529940E-01  3.39786461724E-01  3.43201372437E-01  3.46650603573E-01
  3.50134500059E-01  3.53653410287E-01  3.57207686150E-01  3.60797683080E-01
  3.64423760078E-01  3.68086279756E-01  3.71785608369E-01  3.75522115853E-01
  3.79296175861E-01  3.83108165803E-01  3.86958466880E-01  3.90847464127E-01
  3.94775546446E-01  3.98743106649E-01  4.02750541494E-01  4.06798251729E-01
  4.10886642129E-01  4.15016121535E-01  4.19187102899E-01  4.23400003323E-01
  4.27655244099E-01  4.31953250757E-01  4.36294453100E-01  4.40679285251E-01
  4.45108185698E-01  4.49581597335E-01  4.54099967506E-01  4.58663748053E-01
  4.63273395356E-01  4.67929370385E-01  4.72632138741E-01  4.77382170705E-01
  4.82179941283E-01  4.87025930258E-01  4.91920622231E-01  4.96864506677E-01
  5.01858077987E-01  5.06901835524E-01  5.11996283666E-01  5.17141931863E-01
  5.22339294685E-01  5.27588891871E-01  5.32891248386E-01  5.38246894470E-01
  5.43656365692E-01  5.49120203003E-01  5.54638952793E-01  5.60213166940E-01
  5.65843402870E-01  5.71530223613E-01  5.77274197854E-01  5.83075899995E-01
  5.88935910213E-01  5.94854814513E-01  6.00833204789E-01  6.06871678887E-01
  6.12970840659E-01  6.19131300025E-01  6.25353673037E-01  6.31638581938E-01
  6.37986655223E-01  6.44398527706E-01  6.50874840578E-01  6.57416241477E-01
  6.64023384547E-01  6.70696930510E-01  6.77437546724E-01  6.84245907258E-01
  6.91122692953E-01  6.98068591492E-01  7.05084297473E-01  7.12170512471E-01
  7.19327945114E-01  7.26557311151E-01  7.33859333524E-01  7.41234742442E-01
  7.48684275452E-01  7.56208677514E-01  7.63808701073E-01  7.71485106139E-01
  7.79238660359E-01  7.87070139094E-01  7.94980325499E-01  8.02970010599E-01
  8.11039993369E-01  8.19191080814E-01  8.27424088050E-01  8.35739838385E-01
  8.44139163399E-01  8.52622903034E-01  8.61191905669E-01  8.69847028213E-01
  8.78589136184E-01  8.87419103801E-01  8.96337814068E-01  9.05346158863E-01
  9.14445039028E-01  9.23635364460E-01  9.32918054198E-01  9.42294036518E-01
  9.51764249028E-01  9.61329638755E-01  9.70991162247E-01  9.80749785665E-01
  9.90606484879E-01  1.00056224557E+00  1.01061806331E+00  1.02077494371E+00
  1.03103390245E+00  1.04139596544E+00  1.05186216889E+00  1.06243355944E+00
  1.07311119422E+00  1.08389614103E+00  1.09478947835E+00  1.10579229552E+00
  1.11690569286E+00  1.12813078169E+00  1.13946868453E+00  1.15092053520E+00
  1.16248747888E+00  1.17417067228E+00  1.18597128372E+00  1.19789049328E+00
  1.20992949288E+00  1.22208948645E+00  1.23437168998E+00  1.24677733170E+00
  1.25930765221E+00  1.27196390452E+00  1.28474735429E+00  1.29765927986E+00
  1.31070097244E+00  1.32387373621E+00  1.33717888846E+00  1.35061775971E+00
  1.36419169386E+00  1.37790204832E+00  1.39175019413E+00  1.40573751612E+00
  1.41986541303E+00  1.43413529767E+00  1.44854859703E+00  1.46310675246E+00
  1.47781121979E+00  1.49266346946E+00  1.50766498673E+00  1.52281727176E+00
  1.53812183978E+00  1.55358022126E+00  1.56919396206E+00  1.58496462357E+00
  1.60089378286E+00  1.61698303286E+00  1.63323398251E+00  1.64964825693E+00
  1.66622749754E+00  1.68297336229E+00  1.69988752578E+00  1.71697167944E+00
  1.73422753169E+00  1.75165680815E+00  1.76926125174E+00  1.78704262294E+00
  1.80500269989E+00  1.82314327861E+00  1.84146617318E+00  1.85997321590E+00
  1.87866625749E+00  1.89754716727E+00  1.91661783335E+00  1.93588016281E+00
  1.95533608191E+00  1.97498753623E+00  1.99483649096E+00  2.01488493100E+00
  2.03513486121E+00  2.05558830661E+00  2.07624731255E+00  2.09711394495E+00
  2.11819029049E+00  2.13947845682E+00  2.16098057279E+00  2.18269878861E+00
  2.20463527613E+00  2.22679222901E+00  2.24917186298E+00  2.27177641600E+00
  2.29460814856E+00  2.31766934384E+00  2.34096230800E+00  2.36448937033E+00
  2.38825288357E+00  2.41225522409E+00  2.43649879214E+00  2.46098601210E+00
  2.48571933272E+00  2.51070122733E+00  2.53593419417E+00  2.56142075653E+00
  2.58716346311E+00  2.61316488819E+00  2.63942763193E+00  2.66595432064E+00
  2.69274760700E+00  2.71981017037E+00  2.74714471702E+00  2.77475398043E+00
  2.80264072155E+00  2.83080772908E+00  2.85925781974E+00  2.88799383856E+00
  2.91701865918E+00  2.94633518409E+00  2.97594634497E+00  3.00585510298E+00
  3.03606444899E+00  3.06657740398E+00  3.09739701927E+00  3.12852637684E+00
  3.15996858965E+00  3.19172680196E+00  3.22380418961E+00  3.25620396036E+00
  3.28892935422E+00  3.32198364376E+00  3.35537013443E+00  3.38909216491E+00
  3.42315310743E+00  3.45755636811E+00  3.49230538732E+00  3.52740363997E+00
  3.56285463592E+00  3.59866192031E+00  3.63482907389E+00  3.67135971340E+00
  3.70825749195E+00  3.74552609933E+00  3.78316926245E+00  3.82119074565E+00
  3.85959435110E+00  3.89838391921E+00  3.93756332895E+00  3.97713649831E+00
  4.01710738464E+00  4.05747998505E+00  4.09825833684E+00  4.13944651788E+00
  4.18104864702E+00  4.22306888451E+00  4.26551143241E+00  4.30838053500E+00
  4.35168047924E+00  4.39541559515E+00  4.43959025629E+00  4.48420888015E+00
  4.52927592864E+00  4.57479590849E+00  4.62077337174E+00  4.66721291619E+00
  4.71411918581E+00  4.76149687129E+00  4.80935071041E+00  4.85768548862E+00
  4.90650603942E+00  4.95581724492E+00  5.00562403627E+00  5.05593139419E+00
  5.10674434947E+00  5.15806798344E+00  5.20990742850E+00  5.26226786865E+00
  5.31515453997E+00  5.36857273118E+00  5.42252778413E+00  5.47702509438E+00
  5.53207011170E+00  5.58766834065E+00  5.64382534108E+00  5.70054672875E+00
  5.75783817585E+00  5.81570541156E+00  5.87415422266E+00  5.93319045407E+00
  5.99282000948E+00  6.05304885188E+00  6.11388300421E+00  6.17532854994E+00
  6.23739163366E+00  6.30007846175E+00  6.36339530293E+00  6.42734848895E+00
  6.49194441517E+00  6.55718954125E+00  6.62309039174E+00  6.68965355679E+00
  6.75688569277E+00  6.82479352295E+00  6.89338383817E+00  6.96266349752E+00
  7.03263942902E+00  7.10331863033E+00  7.17470816941E+00  7.24681518530E+00
  7.31964688874E+00  7.39321056296E+00  7.46751356441E+00  7.54256332344E+00
  7.61836734508E+00  7.69493320981E+00  7.77226857427E+00  7.85038117206E+00
  7.92927881451E+00  8.00896939146E+00  8.08946087201E+00  8.17076130540E+00
  8.25287882172E+00  8.33582163281E+00  8.41959803300E+00  8.50421640001E+00
  8.58968519575E+00  8.67601296717E+00  8.76320834711E+00  8.85128005520E+00
  8.94023689866E+00  9.03008777326E+00  9.12084166417E+00  9.21250764684E+00
  9.30509488796E+00  9.39861264632E+00  9.49307027377E+00  9.58847721616E+00
  9.68484301427E+00  9.78217730475E+00  9.88048982111E+00  9.97979039468E+00
  1.00800889556E+01  1.01813955338E+01  1.02837202601E+01  1.03870733670E+01
  1.04914651898E+01  1.05969061679E+01  1.07034068455E+01  1.08109778727E+01
  1.09196300066E+01  1.10293741127E+01  1.11402211654E+01  1.12521822494E+01
  1.13652685611E+01  1.14794914091E+01  1.15948622158E+01  1.17113925184E+01
  1.18290939700E+01  1.19479783408E+01  1.20680575195E+01  1.21893435139E+01
  1.23118484529E+01  1.24355845870E+01  1.25605642898E+01  1.26868000596E+01
  1.28143045200E+01  1.29430904215E+01  1.30731706428E+01  1.32045581921E+01
  1.33372662082E+01  1.34713079620E+01  1.36066968579E+01  1.37434464348E+01
  1.38815703678E+01  1.40210824693E+01  1.41619966909E+01  1.43043271238E+01
  1.44480880015E+01  1.45932936999E+01  1.47399587399E+01  1.48880977881E+01
  1.50377256584E+01  1.51888573138E+01  1.53415078677E+01  1.54956925851E+01
  1.56514268846E+01  1.58087263399E+01  1.59676066810E+01  1.61280837961E+01
  1.62901737330E+01  1.64538927008E+01  1.66192570717E+01  1.67862833821E+01
  1.69549883348E+01  1.71253888004E+01  1.72975018193E+01  1.74713446027E+01
  1.76469345351E+01  1.78242891757E+01  1.80034262601E+01  1.81843637021E+01
  1.83671195956E+01  1.85517122164E+01  1.87381600239E+01  1.89264816630E+01
  1.91166959660E+01  1.93088219546E+01  1.95028788414E+01  1.96988860324E+01
  1.98968631284E+01  2.00968299273E+01  2.02988064259E+01  2.05028128221E+01
  2.07088695167E+01  2.09169971154E+01  2.11272164313E+01  2.13395484865E+01
  2.15540145143E+01  2.17706359615E+01  2.19894344904E+01  2.22104319811E+01
  2.24336505336E+01  2.26591124697E+01  2.28868403360E+01  2.31168569054E+01
  2.33491851798E+01  2.35838483921E+01  2.38208700090E+01  2.40602737326E+01
  2.43020835037E+01  2.45463235035E+01  2.47930181560E+01  2.50421921310E+01
  2.52938703460E+01  2.55480779692E+01  2.58048404215E+01  2.60641833793E+01
  2.63261327772E+01  2.65907148103E+01  2.68579559370E+01  2.71278828817E+01
  2.74005226373E+01  2.76759024680E+01  2.79540499120E+01  2.82349927843E+01
  2.85187591794E+01  2.88053774742E+01  2.90948763307E+01  2.93872846991E+01
  2.96826318205E+01  2.99809472298E+01  3.02822607588E+01  3.05866025391E+01
  3.08940030052E+01  3.12044928973E+01  3.15181032647E+01  3.18348654687E+01
  3.21548111857E+01  3.24779724107E+01  3.28043814600E+01  3.31340709747E+01
  3.34670739242E+01  3.38034236090E+01  3.41431536643E+01  3.44862980634E+01
  3.48328911210E+01  3.51829674968E+01  3.55365621987E+01  3.58937105864E+01
  3.62544483750E+01  3.66188116387E+01  3.69868368141E+01  3.73585607040E+01
  3.77340204811E+01  3.81132536917E+01  3.84962982594E+01  3.88831924891E+01
  3.92739750704E+01  3.96686850819E+01  4.00673619950E+01  4.04700456776E+01
  4.08767763986E+01  4.12875948313E+01  4.17025420578E+01  4.21216595733E+01
  4.25449892899E+01  4.29725735409E+01  4.34044550850E+01  4.38406771108E+01
  4.42812832408E+01  4.47263175361E+01  4.51758245004E+01  4.56298490848E+01
  4.60884366921E+01  4.65516331815E+01  4.70194848730E+01  4.74920385522E+01
  4.79693414749E+01  4.84514413716E+01  4.89383864528E+01  4.94302254135E+01
  4.99270074379E+01  5.04287822047E+01  5.09355998917E+01  5.14475111812E+01
  5.19645672646E+01  5.24868198481E+01  5.30143211572E+01  5.35471239427E+01
  5.40852814852E+01  5.46288476010E+01  5.51778766470E+01  5.57324235266E+01
  5.62925436951E+01  5.68582931648E+01  5.74297285112E+01  5.80069068783E+01
  5.85898859845E+01  5.91787241281E+01  5.97734801934E+01
  </PP_R>
  <PP_RAB>
  6.70925255805E-07  6.77668166727E-07  6.84478845030E-07  6.91357971788E-07
  6.98306234920E-07  7.05324329257E-07  7.12412956614E-07  7.19572825861E-07
  7.26804652990E-07  7.34109161190E-07  7.41487080918E-07  7.48939149972E-07
  7.56466113565E-07  7.64068724400E-07  7.71747742744E-07  7.79503936506E-07
  7.87338081310E-07  7.95250960579E-07  8.03243365607E-07  8.11316095640E-07
  8.19469957960E-07  8.27705767958E-07  8.36024349222E-07  8.44426533618E-07
  8.52913161371E-07  8.61485081151E-07  8.70143150157E-07  8.78888234204E-07
  8.87721207806E-07  8.96642954268E-07  9.05654365774E-07  9.14756343470E-07
  9.23949797563E-07  9.33235647406E-07  9.42614821592E-07  9.52088258045E-07
  9.61656904117E-07  9.71321716681E-07  9.81083662226E-07  9.90943716955E-07
  1.00090286688E-06  1.01096210793E-06  1.02112244603E-06  1.03138489722E-06
  1.04175048777E-06  1.05222025423E-06  1.06279524360E-06  1.07347651337E-06
  1.08426513169E-06  1.09516217743E-06  1.10616874030E-06  1.11728592096E-06
  1.12851483115E-06  1.13985659376E-06  1.15131234297E-06  1.16288322439E-06
  1.17457039509E-06  1.18637502381E-06  1.19829829103E-06  1.21034138907E-06
  1.22250552226E-06  1.23479190702E-06  1.24720177200E-06  1.25973635820E-06
  1.27239691908E-06  1.28518472071E-06  1.29810104189E-06  1.31114717425E-06
  1.32432442242E-06  1.33763410414E-06  1.35107755039E-06  1.36465610551E-06
  1.37837112739E-06  1.39222398752E-06  1.40621607121E-06  1.42034877769E-06
  1.43462352022E-06  1.44904172630E-06  1.46360483776E-06  1.47831431093E-06
  1.49317161675E-06  1.50817824099E-06  1.52333568430E-06  1.53864546245E-06
  1.55410910644E-06  1.56972816262E-06  1.58550419293E-06  1.60143877498E-06
  1.61753350225E-06  1.63378998421E-06  1.65020984653E-06  1.66679473121E-06
  1.68354629676E-06  1.70046621833E-06  1.71755618795E-06  1.73481791461E-06
  1.75225312452E-06  1.76986356119E-06  1.78765098570E-06  1.80561717679E-06
  1.82376393111E-06  1.84209306334E-06  1.86060640641E-06  1.87930581167E-06
  1.89819314908E-06  1.91727030739E-06  1.93653919432E-06  1.95600173679E-06
  1.97565988106E-06  1.99551559297E-06  2.01557085810E-06  2.03582768199E-06
  2.05628809035E-06  2.07695412923E-06  2.09782786526E-06  2.11891138582E-06
  2.14020679928E-06  2.16171623521E-06  2.18344184456E-06  2.20538579992E-06