<PP_INFO>
Generated using Vanderbilt code, version   7  3  2                              
Author: Yi Yao    Generation date:    0    0    0                               
Automatically converted from original format                                    
    0        The Pseudo was generated with a Non-Relativistic Calculation
nl pn  l   occ               Rcut            Rcut US             E pseu
0S  0  0  2.00      0.00000000000      0.00000000000      0.00000000000
0P  0  1  0.00      0.00000000000      0.00000000000      0.00000000000
</PP_INFO>


<PP_HEADER>
   0                   Version Number
  Be                   Element
   NC                  Norm - Conserving pseudopotential
    F                  Nonlinear Core Correction
 SLA  PW   SCAN SCAN   SCAN Exchange-Correlation functional
    2.00000000000      Z valence
    0.00000000000      Total energy
    0.00000    0.00000 Suggested cutoff for wfc and rho
    0                  Max angular momentum component
 1349                  Number of points in mesh
    2    1             Number of Wavefunctions, Number of Projectors
 Wavefunctions         nl  l   occ
                       0S  0  2.00
                       0P  1  0.00
</PP_HEADER>


<PP_MESH>
  <PP_R>
  8.38656569756E-05  8.47085208409E-05  8.55598556288E-05  8.64197464735E-05
  8.72882793650E-05  8.81655411571E-05  8.90516195768E-05  8.99466032326E-05
  9.08505816238E-05  9.17636451488E-05  9.26858851148E-05  9.36173937465E-05
  9.45582641957E-05  9.55085905500E-05  9.64684678430E-05  9.74379920632E-05
  9.84172601638E-05  9.94063700724E-05  1.00405420701E-04  1.01414511955E-04
  1.02433744745E-04  1.03463220995E-04  1.04503043653E-04  1.05553316702E-04
  1.06614145171E-04  1.07685635144E-04  1.08767893770E-04  1.09861029275E-04
  1.10965150976E-04  1.12080369284E-04  1.13206795722E-04  1.14344542934E-04
  1.15493724695E-04  1.16654455926E-04  1.17826852699E-04  1.19011032256E-04
  1.20207113015E-04  1.21415214585E-04  1.22635457778E-04  1.23867964619E-04
  1.25112858360E-04  1.26370263491E-04  1.27640305754E-04  1.28923112153E-04
  1.30218810971E-04  1.31527531779E-04  1.32849405450E-04  1.34184564171E-04
  1.35533141461E-04  1.36895272179E-04  1.38271092537E-04  1.39660740120E-04
  1.41064353893E-04  1.42482074219E-04  1.43914042872E-04  1.45360403048E-04
  1.46821299386E-04  1.48296877977E-04  1.49787286379E-04  1.51292673634E-04
  1.52813190282E-04  1.54348988377E-04  1.55900221500E-04  1.57467044774E-04
  1.59049614885E-04  1.60648090089E-04  1.62262630236E-04  1.63893396781E-04
  1.65540552803E-04  1.67204263018E-04  1.68884693798E-04  1.70582013189E-04
  1.72296390923E-04  1.74027998440E-04  1.75777008902E-04  1.77543597211E-04
  1.79327940027E-04  1.81130215787E-04  1.82950604720E-04  1.84789288866E-04
  1.86646452094E-04  1.88522280123E-04  1.90416960538E-04  1.92330682807E-04
  1.94263638304E-04  1.96216020328E-04  1.98188024117E-04  2.00179846873E-04
  2.02191687781E-04  2.04223748026E-04  2.06276230816E-04  2.08349341402E-04
  2.10443287095E-04  2.12558277292E-04  2.14694523494E-04  2.16852239327E-04
  2.19031640565E-04  2.21232945149E-04  2.23456373212E-04  2.25702147099E-04
  2.27970491389E-04  2.30261632917E-04  2.32575800801E-04  2.34913226459E-04
  2.37274143635E-04  2.39658788424E-04  2.42067399290E-04  2.44500217099E-04
  2.46957485133E-04  2.49439449121E-04  2.51946357262E-04  2.54478460249E-04
  2.57036011294E-04  2.59619266154E-04  2.62228483157E-04  2.64863923227E-04
  2.67525849910E-04  2.70214529401E-04  2.72930230570E-04  2.75673224989E-04
  2.78443786961E-04  2.81242193544E-04  2.84068724580E-04  2.86923662725E-04
  2.89807293476E-04  2.92719905198E-04  2.95661789154E-04  2.98633239535E-04
  3.01634553490E-04  3.04666031150E-04  3.07727975668E-04  3.10820693240E-04
  3.13944493141E-04  3.17099687752E-04  3.20286592596E-04  3.23505526366E-04
  3.26756810959E-04  3.30040771505E-04  3.33357736403E-04  3.36708037353E-04
  3.40092009387E-04  3.43509990905E-04  3.46962323709E-04  3.50449353034E-04
  3.53971427587E-04  3.57528899577E-04  3.61122124755E-04  3.64751462447E-04
  3.68417275588E-04  3.72119930765E-04  3.75859798244E-04  3.79637252017E-04
  3.83452669831E-04  3.87306433232E-04  3.91198927599E-04  3.95130542184E-04
  3.99101670153E-04  4.03112708622E-04  4.07164058697E-04  4.11256125518E-04
  4.15389318293E-04  4.19564050347E-04  4.23780739156E-04  4.28039806391E-04
  4.32341677964E-04  4.36686784065E-04  4.41075559209E-04  4.45508442275E-04
  4.49985876558E-04  4.54508309803E-04  4.59076194257E-04  4.63689986714E-04
  4.68350148556E-04  4.73057145802E-04  4.77811449158E-04  4.82613534057E-04
  4.87463880711E-04  4.92362974160E-04  4.97311304316E-04  5.02309366018E-04
  5.07357659074E-04  5.12456688319E-04  5.17606963660E-04  5.22809000129E-04
  5.28063317933E-04  5.33370442509E-04  5.38730904574E-04  5.44145240179E-04
  5.49613990761E-04  5.55137703200E-04  5.60716929871E-04  5.66352228704E-04
  5.72044163231E-04  5.77793302651E-04  5.83600221882E-04  5.89465501623E-04
  5.95389728404E-04  6.01373494655E-04  6.07417398756E-04  6.13522045103E-04
  6.19688044167E-04  6.25916012551E-04  6.32206573057E-04  6.38560354748E-04
  6.44977993007E-04  6.51460129602E-04  6.58007412753E-04  6.64620497194E-04
  6.71300044238E-04  6.78046721847E-04  6.84861204692E-04  6.91744174229E-04
  6.98696318759E-04  7.05718333504E-04  7.12810920670E-04  7.19974789522E-04
  7.27210656453E-04  7.34519245056E-04  7.41901286195E-04  7.49357518081E-04
  7.56888686344E-04  7.64495544106E-04  7.72178852059E-04  7.79939378541E-04
  7.87777899611E-04  7.95695199127E-04  8.03692068827E-04  8.11769308403E-04
  8.19927725586E-04  8.28168136225E-04  8.36491364368E-04  8.44898242344E-04
  8.53389610849E-04  8.61966319026E-04  8.70629224553E-04  8.79379193728E-04
  8.88217101555E-04  8.97143831833E-04  9.06160277241E-04  9.15267339433E-04
  9.24465929121E-04  9.33756966172E-04  9.43141379698E-04  9.52620108148E-04
  9.62194099403E-04  9.71864310869E-04  9.81631709576E-04  9.91497272273E-04
  1.00146198552E-03  1.01152684581E-03  1.02169285962E-03  1.03196104356E-03
  1.04233242448E-03  1.05280803950E-03  1.06338893620E-03  1.07407617269E-03
  1.08487081768E-03  1.09577395067E-03  1.10678666196E-03  1.11791005284E-03
  1.12914523565E-03  1.14049333393E-03  1.15195548250E-03  1.16353282757E-03
  1.17522652690E-03  1.18703774985E-03  1.19896767757E-03  1.21101750306E-03
  1.22318843131E-03  1.23548167942E-03  1.24789847673E-03  1.26044006492E-03
  1.27310769817E-03  1.28590264326E-03  1.29882617968E-03  1.31187959980E-03
  1.32506420897E-03  1.33838132566E-03  1.35183228161E-03  1.36541842191E-03
  1.37914110519E-03  1.39300170373E-03  1.40700160360E-03  1.42114220480E-03
  1.43542492141E-03  1.44985118171E-03  1.46442242833E-03  1.47914011842E-03
  1.49400572375E-03  1.50902073090E-03  1.52418664138E-03  1.53950497179E-03
  1.55497725399E-03  1.57060503520E-03  1.58638987823E-03  1.60233336156E-03
  1.61843707957E-03  1.63470264264E-03  1.65113167733E-03  1.66772582656E-03
  1.68448674977E-03  1.70141612306E-03  1.71851563937E-03  1.73578700869E-03
  1.75323195815E-03  1.77085223226E-03  1.78864959308E-03  1.80662582034E-03
  1.82478271170E-03  1.84312208284E-03  1.86164576773E-03  1.88035561875E-03
  1.89925350689E-03  1.91834132197E-03  1.93762097278E-03  1.95709438731E-03
  1.97676351290E-03  1.99663031649E-03  2.01669678477E-03  2.03696492442E-03
  2.05743676226E-03  2.07811434548E-03  2.09899974187E-03  2.12009503999E-03
  2.14140234937E-03  2.16292380078E-03  2.18466154637E-03  2.20661775993E-03
  2.22879463711E-03  2.25119439561E-03  2.27381927542E-03  2.29667153906E-03
  2.31975347177E-03  2.34306738175E-03  2.36661560043E-03  2.39040048264E-03
  2.41442440688E-03  2.43868977559E-03  2.46319901530E-03  2.48795457696E-03
  2.51295893616E-03  2.53821459334E-03  2.56372407410E-03  2.58948992940E-03
  2.61551473586E-03  2.64180109596E-03  2.66835163838E-03  2.69516901819E-03
  2.72225591714E-03  2.74961504395E-03  2.77724913456E-03  2.80516095240E-03
  2.83335328867E-03  2.86182896263E-03  2.89059082187E-03  2.91964174260E-03
  2.94898462994E-03  2.97862241820E-03  3.00855807118E-03  3.03879458248E-03
  3.06933497577E-03  3.10018230511E-03  3.13133965527E-03  3.16281014200E-03
  3.19459691238E-03  3.22670314512E-03  3.25913205086E-03  3.29188687252E-03
  3.32497088561E-03  3.35838739856E-03  3.39213975305E-03  3.42623132434E-03
  3.46066552162E-03  3.49544578833E-03  3.53057560254E-03  3.56605847725E-03
  3.60189796078E-03  3.63809763710E-03  3.67466112623E-03  3.71159208452E-03
  3.74889420512E-03  3.78657121826E-03  3.82462689168E-03  3.86306503098E-03
  3.90188948000E-03  3.94110412121E-03  3.98071287613E-03  4.02071970565E-03
  4.06112861049E-03  4.10194363157E-03  4.14316885044E-03  4.18480838965E-03
  4.22686641318E-03  4.26934712687E-03  4.31225477884E-03  4.35559365987E-03
  4.39936810391E-03  4.44358248841E-03  4.48824123488E-03  4.53334880920E-03
  4.57890972218E-03  4.62492852995E-03  4.67140983443E-03  4.71835828379E-03
  4.76577857290E-03  4.81367544385E-03  4.86205368635E-03  4.91091813827E-03
  4.96027368609E-03  5.01012526542E-03  5.06047786145E-03  5.11133650948E-03
  5.16270629543E-03  5.21459235630E-03  5.26699988076E-03  5.31993410959E-03
  5.37340033627E-03  5.42740390746E-03  5.48195022357E-03  5.53704473926E-03
  5.59269296404E-03  5.64890046278E-03  5.70567285627E-03  5.76301582181E-03
  5.82093509372E-03  5.87943646400E-03  5.93852578283E-03  5.99820895918E-03
  6.05849196142E-03  6.11938081791E-03  6.18088161758E-03  6.24300051057E-03
  6.30574370881E-03  6.36911748667E-03  6.43312818159E-03  6.49778219469E-03
  6.56308599142E-03  6.62904610222E-03  6.69566912316E-03  6.76296171659E-03
  6.83093061182E-03  6.89958260581E-03  6.96892456381E-03  7.03896342008E-03
  7.10970617855E-03  7.18115991356E-03  7.25333177055E-03  7.32622896676E-03
  7.39985879197E-03  7.47422860923E-03  7.54934585558E-03  7.62521804280E-03
  7.70185275819E-03  7.77925766527E-03  7.85744050459E-03  7.93640909452E-03
  8.01617133197E-03  8.09673519323E-03  8.17810873475E-03  8.26030009397E-03
  8.34331749008E-03  8.42716922489E-03  8.51186368365E-03  8.59740933587E-03
  8.68381473618E-03  8.77108852521E-03  8.85923943040E-03  8.94827626691E-03
  9.03820793851E-03  9.12904343844E-03  9.22079185031E-03  9.31346234905E-03
  9.40706420179E-03  9.50160676879E-03  9.59709950439E-03  9.69355195793E-03
  9.79097377475E-03  9.88937469710E-03  9.98876456516E-03  1.00891533180E-02
  1.01905509946E-02  1.02929677348E-02  1.03964137803E-02  1.05008994759E-02
  1.06064352701E-02  1.07130317168E-02  1.08206994755E-02  1.09294493132E-02
  1.10392921049E-02  1.11502388351E-02  1.12623005984E-02  1.13754886012E-02
  1.14898141623E-02  1.16052887144E-02  1.17219238050E-02  1.18397310978E-02
  1.19587223735E-02  1.20789095315E-02  1.22003045905E-02  1.23229196901E-02
  1.24467670920E-02  1.25718591809E-02  1.26982084662E-02  1.28258275830E-02
  1.29547292932E-02  1.30849264871E-02  1.32164321846E-02  1.33492595363E-02
  1.34834218251E-02  1.36189324673E-02  1.37558050141E-02  1.38940531529E-02
  1.40336907085E-02  1.41747316450E-02  1.43171900664E-02  1.44610802187E-02
  1.46064164911E-02  1.47532134174E-02  1.49014856772E-02  1.50512480981E-02
  1.52025156563E-02  1.53553034788E-02  1.55096268443E-02  1.56655011855E-02
  1.58229420899E-02  1.59819653017E-02  1.61425867233E-02  1.63048224170E-02
  1.64686886066E-02  1.66342016788E-02  1.68013781849E-02  1.69702348429E-02
  1.71407885386E-02  1.73130563273E-02  1.74870554362E-02  1.76628032651E-02
  1.78403173891E-02  1.80196155597E-02  1.82007157069E-02  1.83836359408E-02
  1.85683945536E-02  1.87550100213E-02  1.89435010057E-02  1.91338863560E-02
  1.93261851108E-02  1.95204165003E-02  1.97165999477E-02  1.99147550715E-02
  2.01149016874E-02  2.03170598102E-02  2.05212496560E-02  2.07274916438E-02
  2.09358063980E-02  2.11462147504E-02  2.13587377418E-02  2.15733966248E-02
  2.17902128655E-02  2.20092081456E-02  2.22304043648E-02  2.24538236431E-02
  2.26794883224E-02  2.29074209694E-02  2.31376443776E-02  2.33701815695E-02
  2.36050557991E-02  2.38422905539E-02  2.40819095576E-02  2.43239367724E-02
  2.45683964011E-02  2.48153128899E-02  2.50647109307E-02  2.53166154635E-02
  2.55710516789E-02  2.58280450208E-02  2.60876211887E-02  2.63498061405E-02
  2.66146260948E-02  2.68821075339E-02  2.71522772062E-02  2.74251621289E-02
  2.77007895906E-02  2.79791871543E-02  2.82603826601E-02  2.85444042277E-02
  2.88312802595E-02  2.91210394434E-02  2.94137107554E-02  2.97093234631E-02
  3.00079071279E-02  3.03094916083E-02  3.06141070632E-02  3.09217839544E-02
  3.12325530496E-02  3.15464454263E-02  3.18634924737E-02  3.21837258970E-02
  3.25071777196E-02  3.28338802871E-02  3.31638662700E-02  3.34971686672E-02
  3.38338208092E-02  3.41738563614E-02  3.45173093277E-02  3.48642140538E-02
  3.52146052303E-02  3.55685178966E-02  3.59259874444E-02  3.62870496209E-02
  3.66517405326E-02  3.70200966489E-02  3.73921548057E-02  3.77679522091E-02
  3.81475264392E-02  3.85309154538E-02  3.89181575920E-02  3.93092915784E-02
  3.97043565267E-02  4.01033919438E-02  4.05064377335E-02  4.09135342007E-02
  4.13247220554E-02  4.17400424168E-02  4.21595368171E-02  4.25832472064E-02
  4.30112159558E-02  4.34434858626E-02  4.38801001542E-02  4.43211024925E-02
  4.47665369779E-02  4.52164481543E-02  4.56708810132E-02  4.61298809982E-02
  4.65934940099E-02  4.70617664097E-02  4.75347450254E-02  4.80124771552E-02
  4.84950105727E-02  4.89823935317E-02  4.94746747709E-02  4.99719035188E-02
  5.04741294987E-02  5.09814029336E-02  5.14937745512E-02  5.20112955893E-02
  5.25340178002E-02  5.30619934567E-02  5.35952753567E-02  5.41339168290E-02
  5.46779717381E-02  5.52274944898E-02  5.57825400371E-02  5.63431638849E-02
  5.69094220960E-02  5.74813712967E-02  5.80590686824E-02  5.86425720234E-02
  5.92319396705E-02  5.98272305609E-02  6.04285042243E-02  6.10358207884E-02
  6.16492409854E-02  6.22688261579E-02  6.28946382649E-02  6.35267398882E-02
  6.41651942384E-02  6.48100651615E-02  6.54614171451E-02  6.61193153250E-02
  6.67838254915E-02  6.74550140962E-02  6.81329482585E-02  6.88176957724E-02
  6.95093251133E-02  7.02079054446E-02  7.09135066249E-02  7.16261992150E-02
  7.23460544848E-02  7.30731444202E-02  7.38075417310E-02  7.45493198575E-02
  7.52985529781E-02  7.60553160167E-02  7.68196846503E-02  7.75917353164E-02
  7.83715452207E-02  7.91591923448E-02  7.99547554541E-02  8.07583141056E-02
  8.15699486558E-02  8.23897402688E-02  8.32177709245E-02  8.40541234267E-02
  8.48988814112E-02  8.57521293547E-02  8.66139525825E-02  8.74844372778E-02
  8.83636704897E-02  8.92517401423E-02  9.01487350433E-02  9.10547448929E-02
  9.19698602929E-02  9.28941727555E-02  9.38277747128E-02  9.47707595258E-02
  9.57232214938E-02  9.66852558636E-02  9.76569588396E-02  9.86384275929E-02
  9.96297602711E-02  1.00631056008E-01  1.01642414935E-01  1.02663938188E-01
  1.03695727920E-01  1.04737887312E-01  1.05790520579E-01  1.06853732987E-01
  1.07927630857E-01  1.09012321580E-01  1.10107913626E-01  1.11214516556E-01
  1.12332241029E-01  1.13461198821E-01  1.14601502826E-01  1.15753267078E-01
  1.16916606752E-01  1.18091638185E-01  1.19278478880E-01  1.20477247523E-01
  1.21688063990E-01  1.22911049365E-01  1.24146325948E-01  1.25394017267E-01
  1.26654248091E-01  1.27927144447E-01  1.29212833623E-01  1.30511444190E-01
  1.31823106011E-01  1.33147950252E-01  1.34486109399E-01  1.35837717269E-01
  1.37202909024E-01  1.38581821184E-01  1.39974591641E-01  1.41381359675E-01
  1.42802265962E-01  1.44237452595E-01  1.45687063093E-01  1.47151242420E-01
  1.48630136993E-01  1.50123894703E-01  1.51632664928E-01  1.53156598546E-01
  1.54695847952E-01  1.56250567071E-01  1.57820911377E-01  1.59407037905E-01
  1.61009105271E-01  1.62627273681E-01  1.64261704954E-01  1.65912562534E-01
  1.67580011509E-01  1.69264218625E-01  1.70965352303E-01  1.72683582659E-01
  1.74419081518E-01  1.76172022430E-01  1.77942580691E-01  1.79730933358E-01
  1.81537259268E-01  1.83361739056E-01  1.85204555170E-01  1.87065891895E-01
  1.88945935364E-01  1.90844873584E-01  1.92762896451E-01  1.94700195768E-01
  1.96656965267E-01  1.98633400626E-01  2.00629699491E-01  2.02646061493E-01
  2.04682688269E-01  2.06739783486E-01  2.08817552853E-01  2.10916204149E-01
  2.13035947242E-01  2.15176994106E-01  2.17339558850E-01  2.19523857730E-01
  2.21730109179E-01  2.23958533824E-01  2.26209354509E-01  2.28482796318E-01
  2.30779086597E-01  2.33098454976E-01  2.35441133396E-01  2.37807356125E-01
  2.40197359788E-01  2.42611383387E-01  2.45049668327E-01  2.47512458437E-01
  2.50000000000E-01  2.52512541771E-01  2.55050335007E-01  2.57613633488E-01
  2.60202693548E-01  2.62817774094E-01  2.65459136636E-01  2.68127045314E-01
  2.70821766919E-01  2.73543570926E-01  2.76292729519E-01  2.79069517615E-01
  2.81874212895E-01  2.84707095831E-01  2.87568449714E-01  2.90458560682E-01
  2.93377717748E-01  2.96326212830E-01  2.99304340780E-01  3.02312399414E-01
  3.05350689540E-01  3.08419514989E-01  3.11519182647E-01  3.14650002482E-01
  3.17812287580E-01  3.21006354172E-01  3.24232521666E-01  3.27491112683E-01
  3.30782453084E-01  3.34106872006E-01  3.37464701894E-01  3.40856278533E-01
  3.44281941084E-01  3.47742032116E-01  3.51236897641E-01  3.54766887148E-01
  3.58332353640E-01  3.61933653666E-01  3.65571147359E-01  3.69245198471E-01
  3.72956174410E-01  3.76704446278E-01  3.80490388905E-01  3.84314380887E-01
  3.88176804628E-01  3.92078046373E-01  3.96018496249E-01  3.99998548304E-01
  4.04018600548E-01  4.08079054989E-01  4.12180317675E-01  4.16322798736E-01
  4.20506912425E-01  4.24733077155E-01  4.29001715546E-01  4.33313254467E-01
  4.37668125074E-01  4.42066762858E-01  4.46509607688E-01  4.50997103849E-01
  4.55529700098E-01  4.60107849695E-01  4.64732010462E-01  4.69402644816E-01
  4.74120219826E-01  4.78885207253E-01  4.83698083601E-01  4.88559330159E-01
  4.93469433058E-01  4.98428883311E-01  5.03438176868E-01  5.08497814662E-01
  5.13608302661E-01  5.18770151919E-01  5.23983878624E-01  5.29250004153E-01
  5.34569055124E-01  5.39941563446E-01  5.45368066375E-01  5.50849106564E-01
  5.56385232123E-01  5.61976996669E-01  5.67624959383E-01  5.73329685066E-01
  5.79091744195E-01  5.84911712981E-01  5.90790173426E-01  5.96727713381E-01
  6.02724926604E-01  6.08782412822E-01  6.14900777789E-01  6.21080633346E-01
  6.27322597484E-01  6.33627294404E-01  6.39995354582E-01  6.46427414829E-01
  6.52924118356E-01  6.59486114839E-01  6.66114060482E-01  6.72808618087E-01
  6.79570457115E-01  6.86400253754E-01  6.93298690991E-01  7.00266458675E-01
  7.07304253588E-01  7.14412779516E-01  7.21592747317E-01  7.28844874994E-01
  7.36169887766E-01  7.43568518141E-01  7.51041505987E-01  7.58589598609E-01
  7.66213550823E-01  7.73914125031E-01  7.81692091297E-01  7.89548227422E-01
  7.97483319029E-01  8.05498159632E-01  8.13593550722E-01  8.21770301846E-01
  8.30029230684E-01  8.38371163137E-01  8.46796933405E-01  8.55307384072E-01
  8.63903366191E-01  8.72585739365E-01  8.81355371841E-01  8.90213140589E-01
  8.99159931392E-01  9.08196638938E-01  9.17324166905E-01  9.26543428053E-01
  9.35855344315E-01  9.45260846892E-01  9.54760876342E-01  9.64356382674E-01
  9.74048325449E-01  9.83837673868E-01  9.93725406874E-01  1.00371251325E+00
  1.01379999171E+00  1.02398885102E+00  1.03428011006E+00  1.04467479798E+00
  1.05517395425E+00  1.06577862879E+00  1.07648988209E+00  1.08730878527E+00
  1.09823642023E+00  1.10927387975E+00  1.12042226758E+00  1.13168269858E+00
  1.14305629879E+00  1.15454420557E+00  1.16614756775E+00  1.17786754565E+00
  1.18970531128E+00  1.20166204844E+00  1.21373895281E+00  1.22593723208E+00
  1.23825810610E+00  1.25070280696E+00  1.26327257914E+00  1.27596867963E+00
  1.28879237806E+00  1.30174495679E+00  1.31482771111E+00  1.32804194930E+00
  1.34138899278E+00  1.35487017628E+00  1.36848684793E+00  1.38224036941E+00
  1.39613211607E+00  1.41016347711E+00  1.42433585567E+00  1.43865066900E+00
  1.45310934860E+00  1.46771334035E+00  1.48246410465E+00  1.49736311660E+00
  1.51241186610E+00  1.52761185806E+00  1.54296461247E+00  1.55847166463E+00
  1.57413456526E+00  1.58995488065E+00  1.60593419286E+00  1.62207409982E+00
  1.63837621555E+00  1.65484217026E+00  1.67147361057E+00  1.68827219963E+00
  1.70523961732E+00  1.72237756040E+00  1.73968774266E+00  1.75717189515E+00
  1.77483176629E+00  1.79266912209E+00  1.81068574629E+00  1.82888344058E+00
  1.84726402473E+00  1.86582933683E+00  1.88458123342E+00  1.90352158969E+00
  1.92265229972E+00  1.94197527658E+00  1.96149245258E+00  1.98120577946E+00
  2.00111722857E+00  2.02122879108E+00  2.04154247814E+00  2.06206032116E+00
  2.08278437192E+00  2.10371670286E+00  2.12485940722E+00  2.14621459929E+00
  2.16778441462E+00  2.18957101019E+00  2.21157656468E+00  2.23380327867E+00
  2.25625337486E+00  2.27892909826E+00  2.30183271647E+00  2.32496651987E+00
  2.34833282186E+00  2.37193395909E+00  2.39577229169E+00  2.41985020352E+00
  2.44417010238E+00  2.46873442029E+00  2.49354561370E+00  2.51860616375E+00
  2.54391857652E+00  2.56948538326E+00  2.59530914068E+00  2.62139243118E+00
  2.64773786311E+00  2.67434807103E+00  2.70122571598E+00  2.72837348576E+00
  2.75579409516E+00  2.78349028627E+00  2.81146482872E+00  2.83972052000E+00
  2.86826018570E+00  2.89708667981E+00  2.92620288500E+00  2.95561171291E+00
  2.98531610446E+00  3.01531903011E+00  3.04562349018E+00  3.07623251513E+00
  3.10714916589E+00  3.13837653417E+00  3.16991774271E+00  3.20177594567E+00
  3.23395432889E+00  3.26645611023E+00  3.29928453991E+00  3.33244290080E+00
  3.36593450875E+00  3.39976271296E+00  3.43393089627E+00  3.46844247553E+00
  3.50330090193E+00  3.53850966134E+00  3.57407227467E+00  3.60999229820E+00
  3.64627332397E+00  3.68291898011E+00  3.71993293122E+00  3.75731887872E+00
  3.79508056124E+00  3.83322175498E+00  3.87174627408E+00  3.91065797105E+00
  3.94996073707E+00  3.98965850245E+00  4.02975523701E+00  4.07025495045E+00
  4.11116169277E+00  4.15247955470E+00  4.19421266803E+00  4.23636520614E+00
  4.27894138429E+00  4.32194546014E+00  4.36538173414E+00  4.40925454996E+00
  4.45356829490E+00  4.49832740039E+00  4.54353634236E+00  4.58919964175E+00
  4.63532186494E+00  4.68190762417E+00  4.72896157806E+00  4.77648843206E+00
  4.82449293888E+00  4.87297989901E+00  4.92195416119E+00  4.97142062289E+00
  5.02138423080E+00  5.07184998131E+00  5.12282292105E+00  5.17430814735E+00
  5.22631080877E+00  5.27883610564E+00  5.33188929051E+00  5.38547566875E+00
  5.43960059905E+00  5.49426949394E+00  5.54948782036E+00  5.60526110019E+00
  5.66159491079E+00  5.71849488561E+00  5.77596671468E+00  5.83401614524E+00
  5.89264898227E+00  5.95187108911E+00  6.01168838802E+00  6.07210686077E+00
  6.13313254928E+00  6.19477155615E+00  6.25703004533E+00  6.31991424274E+00
  6.38343043684E+00  6.44758497930E+00  6.51238428563E+00  6.57783483582E+00
  6.64394317497E+00  6.71071591397E+00  6.77815973016E+00  6.84628136798E+00
  6.91508763963E+00  6.98458542581E+00  7.05478167635E+00  7.12568341094E+00
  7.19729771981E+00  7.26963176445E+00  7.34269277832E+00  7.41648806759E+00
  7.49102501185E+00  7.56631106485E+00  7.64235375526E+00  7.71916068742E+00
  7.79673954208E+00  7.87509807719E+00  7.95424412867E+00  8.03418561119E+00
  8.11493051897E+00  8.19648692656E+00  8.27886298967E+00  8.36206694599E+00
  8.44610711596E+00  8.53099190369E+00  8.61672979771E+00  8.70332937190E+00
  8.79079928628E+00  8.87914828791E+00  8.96838521177E+00  9.05851898162E+00
  9.14955861092E+00  9.24151320371E+00  9.33439195551E+00  9.42820415430E+00
  9.52295918135E+00  9.61866651226E+00  9.71533571783E+00  9.81297646508E+00
  9.91159851814E+00  1.00112117393E+01  1.01118260900E+01  1.02134516317E+01
  1.03160985272E+01  1.04197770410E+01  1.05244975412E+01  1.06302705000E+01
  1.07371064947E+01  1.08450162090E+01  1.09540104339E+01  1.10641000690E+01
  1.11752961233E+01  1.12876097166E+01  1.14010520802E+01  1.15156345586E+01
  1.16313686099E+01  1.17482658079E+01  1.18663378422E+01  1.19855965202E+01
  1.21060537678E+01  1.22277216309E+01  1.23506122764E+01  1.24747379934E+01
  1.26001111945E+01  1.27267444173E+01  1.28546503251E+01  1.29838417087E+01
  1.31143314873E+01  1.32461327099E+01  1.33792585569E+01  1.35137223408E+01
  1.36495375083E+01  1.37867176409E+01  1.39252764567E+01  1.40652278118E+01
  1.42065857014E+01  1.43493642614E+01  1.44935777697E+01  1.46392406480E+01
  1.47863674625E+01  1.49349729260E+01  1.50850718993E+01  1.52366793924E+01
  1.53898105661E+01  1.55444807337E+01  1.57007053623E+01  1.58585000745E+01
  1.60178806500E+01  1.61788630269E+01  1.63414633035E+01  1.65056977401E+01
  1.66715827602E+01  1.68391349525E+01  1.70083710724E+01  1.71793080435E+01
  1.73519629597E+01  1.75263530867E+01  1.77024958636E+01  1.78804089048E+01
  1.80601100018E+01  1.82416171249E+01  1.84249484249E+01  1.86101222351E+01
  1.87971570730E+01  1.89860716423E+01  1.91768848346E+01  1.93696157313E+01
  1.95642836058E+01  1.97609079249E+01  1.99595083513E+01  2.01601047451E+01
  2.03627171662E+01  2.05673658761E+01  2.07740713396E+01  2.09828542276E+01
  2.11937354185E+01  2.14067360006E+01  2.16218772741E+01  2.18391807534E+01
  2.20586681689E+01  2.22803614697E+01  2.25042828251E+01  2.27304546276E+01
  2.29588994945E+01  2.31896402705E+01  2.34227000299E+01  2.36581020787E+01
  2.38958699575E+01  2.41360274432E+01  2.43785985518E+01  2.46236075405E+01
  2.48710789105E+01  2.51210374091E+01  2.53735080324E+01  2.56285160276E+01
  2.58860868958E+01  2.61462463943E+01  2.64090205392E+01  2.66744356081E+01
  2.69425181429E+01  2.72132949519E+01  2.74867931130E+01  2.77630399764E+01
  2.80420631670E+01  2.83238905872E+01  2.86085504200E+01  2.88960711318E+01
  2.91864814747E+01  2.94798104902E+01  2.97760875112E+01  3.00753421658E+01
  3.03776043797E+01  3.06829043793E+01  3.09912726950E+01  3.13027401637E+01
  3.16173379325E+01  3.19350974615E+01  3.22560505268E+01  3.25802292241E+01
  3.29076659715E+01  3.32383935128E+01  3.35724449212E+01  3.39098536021E+01
  3.42506532966E+01  3.45948780850E+01  3.49425623900E+01  3.52937409804E+01
  3.56484489742E+01  3.60067218427E+01  3.63685954134E+01  3.67341058739E+01
  3.71032897756E+01  3.74761840373E+01  3.78528259485E+01  3.82332531739E+01
  3.86175037565E+01  3.90056161216E+01  3.93976290808E+01  3.97935818358E+01
  4.01935139822E+01  4.05974655134E+01  4.10054768250E+01  4.14175887184E+01
  4.18338424053E+01  4.22542795112E+01  4.26789420803E+01  4.31078725792E+01
  4.35411139013E+01  4.39787093710E+01  4.44207027483E+01  4.48671382330E+01
  4.53180604688E+01  4.57735145484E+01  4.62335460177E+01  4.66982008800E+01
  4.71675256014E+01  4.76415671147E+01  4.81203728243E+01  4.86039906113E+01
  4.90924688379E+01  4.95858563523E+01  5.00842024937E+01  5.05875570970E+01
  5.10959704982E+01  5.16094935391E+01  5.21281775723E+01  5.26520744667E+01
  5.31812366124E+01  5.37157169261E+01  5.42555688562E+01  5.48008463885E+01
  5.53516040510E+01  5.59078969201E+01  5.64697806255E+01  5.70373113560E+01
  5.76105458652E+01  5.81895414769E+01  5.87743560913E+01  5.93650481903E+01
  5.99616768436E+01
  </PP_R>
  <PP_RAB>
  8.38656569756E-07  8.47085208409E-07  8.55598556288E-07  8.64197464735E-07
  8.72882793650E-07  8.81655411571E-07  8.90516195768E-07  8.99466032326E-07
  9.08505816238E-07  9.17636451488E-07  9.26858851148E-07  9.36173937465E-07
  9.45582641957E-07  9.55085905500E-07  9.64684678430E-07  9.74379920632E-07
  9.84172601638E-07  9.94063700724E-07  1.00405420701E-06  1.01414511955E-06
  1.02433744745E-06  1.03463220995E-06  1.04503043653E-06  1.05553316702E-06
  1.06614145171E-06  1.07685635144E-06  1.08767893770E-06  1.09861029275E-06
  1.10965150976E-06  1.12080369284E-06  1.13206795722E-06  1.14344542934E-06
  1.15493724695E-06  1.16654455926E-06  1.17826852699E-06  1.19011032256E-06
  1.20207113015E-06  1.21415214585E-06  1.22635457778E-06  1.23867964619E-06
  1.25112858360E-06  1.26370263491E-06  1.27640305754E-06  1.28923112153E-06
  1.30218810971E-06  1.31527531779E-06  1.32849405450E-06  1.34184564171E-06
  1.35533141461E-06  1.36895272179E-06  1.38271092537E-06  1.39660740120E-06
  1.41064353893E-06  1.42482074219E-06  1.43914042872E-06  1.45360403048E-06
  1.46821299386E-06  1.48296877977E-06  1.49787286379E-06  1.51292673634E-06
  1.52813190282E-06  1.54348988377E-06  1.55900221500E-06  1.57467044774E-06
  1.59049614885E-06  1.60648090089E-06  1.62262630236E-06  1.63893396781E-06
  1.65540552803E-06  1.67204263018E-06  1.68884693798E-06  1.70582013189E-06
  1.72296390923E-06  1.74027998440E-06  1.75777008902E-06  1.77543597211E-06
  1.79327940027E-06  1.81130215787E-06  1.82950604720E-06  1.84789288866E-06
  1.86646452094E-06  1.88522280123E-06  1.90416960538E-06  1.92330682807E-06
  1.94263638304E-06  1.96216020328E-06  1.98188024117E-06  2.00179846873E-06
  2.02191687781E-06  2.04223748026E-06  2.06276230816E-06  2.08349341402E-06
  2.10443287095E-06  2.12558277292E-06  2.14694523494E-06  2.16852239327E-06
  2.19031640565E-06  2.21232945149E-06  2.23456373212E-06  2.25702147099E-06
  2.27970491389E-06  2.30261632917E-06  2.32575800801E-06  2.34913226459E-06
  2.37274143635E-06  2.39658788424E-06  2.42067399290E-06  2.44500217099E-06
  2.46957485133E-06  2.49439449121E-06  2.51946357262E-06  2.54478460249E-06
  2.57036011294E-06  2.59619266154E-06  2.62228483157E-06  2.64863923227E-06
  2.67525849910E-06  2.70214529401E-06  2.72930230570E-06  2.75673224989E-06
  2.78443786961E-06  2.81242193544E-06  2.84068724580E-06  2.86923662725E-06
  2.89807293476E-06  2.92719905198E-06  2.95661789154E-06  2.98633239535E-06
  3.01634553490E-06  3.04666031150E-06  3.07727975668E-06  3.10820693240E-06
  3.13944493141E-06  3.17099687752E-06  3.20286592596E-06  3.23505526366E-06
  3.26756810959E-06  3.30040771505E-06  3.33357736403E-06  3.36708037353E-06
  3.40092009387E-06  3.43509990905E-06  3.46962323709E-06  3.50449353034E-06