<PP_INFO>
Generated using Vanderbilt code, version   7  3  2                              
Author: Yi Yao     Generation date:    0    0    0                              
Automatically converted from original format                                    
    0        The Pseudo was generated with a Non-Relativistic Calculation
nl pn  l   occ               Rcut            Rcut US             E pseu
0S  0  0  2.00      0.00000000000      0.00000000000      0.00000000000
0P  0  1  2.00      0.00000000000      0.00000000000      0.00000000000
</PP_INFO>


<PP_HEADER>
   0                   Version Number
   C                   Element
   NC                  Norm - Conserving pseudopotential
    F                  Nonlinear Core Correction
SLA  PW   SCAN SCAN    SCAN Exchange-Correlation functional
    4.00000000000      Z valence
    0.00000000000      Total energy
  0.0000000  0.0000000 Suggested cutoff for wfc and rho
    0                  Max angular momentum component
 1389                  Number of points in mesh
    2    1             Number of Wavefunctions, Number of Projectors
 Wavefunctions         nl  l   occ
                       0S  0  2.00
                       0P  1  2.00
</PP_HEADER>


<PP_MESH>
  <PP_R>
  5.59104379838E-05  5.64723472272E-05  5.70399037525E-05  5.76131643157E-05
  5.81921862433E-05  5.87770274380E-05  5.93677463845E-05  5.99644021551E-05
  6.05670544158E-05  6.11757634325E-05  6.17905900765E-05  6.24115958310E-05
  6.30388427971E-05  6.36723937000E-05  6.43123118953E-05  6.49586613755E-05
  6.56115067758E-05  6.62709133816E-05  6.69369471339E-05  6.76096746367E-05
  6.82891631633E-05  6.89754806631E-05  6.96686957685E-05  7.03688778015E-05
  7.10760967809E-05  7.17904234293E-05  7.25119291798E-05  7.32406861836E-05
  7.39767673171E-05  7.47202461890E-05  7.54711971478E-05  7.62296952892E-05
  7.69958164636E-05  7.77696372838E-05  7.85512351326E-05  7.93406881704E-05
  8.01380753431E-05  8.09434763901E-05  8.17569718522E-05  8.25786430796E-05
  8.34085722401E-05  8.42468423274E-05  8.50935371691E-05  8.59487414354E-05
  8.68125406475E-05  8.76850211860E-05  8.85662702997E-05  8.94563761142E-05
  9.03554276409E-05  9.12635147857E-05  9.21807283580E-05  9.31071600799E-05
  9.40429025954E-05  9.49880494796E-05  9.59426952479E-05  9.69069353656E-05
  9.78808662577E-05  9.88645853179E-05  9.98581909190E-05  1.00861782423E-04
  1.01875460188E-04  1.02899325585E-04  1.03933481000E-04  1.04978029850E-04
  1.06033076590E-04  1.07098726726E-04  1.08175086824E-04  1.09262264521E-04
  1.10360368535E-04  1.11469508679E-04  1.12589795866E-04  1.13721342126E-04
  1.14864260615E-04  1.16018665627E-04  1.17184672601E-04  1.18362398140E-04
  1.19551960018E-04  1.20753477192E-04  1.21967069813E-04  1.23192859244E-04
  1.24430968063E-04  1.25681520082E-04  1.26944640358E-04  1.28220455205E-04
  1.29509092203E-04  1.30810680218E-04  1.32125349411E-04  1.33453231249E-04
  1.34794458521E-04  1.36149165351E-04  1.37517487211E-04  1.38899560934E-04
  1.40295524730E-04  1.41705518194E-04  1.43129682329E-04  1.44568159551E-04
  1.46021093710E-04  1.47488630099E-04  1.48970915475E-04  1.50468098066E-04
  1.51980327592E-04  1.53507755278E-04  1.55050533867E-04  1.56608817639E-04
  1.58182762423E-04  1.59772525616E-04  1.61378266194E-04  1.63000144733E-04
  1.64638323422E-04  1.66292966081E-04  1.67964238175E-04  1.69652306833E-04
  1.71357340862E-04  1.73079510769E-04  1.74818988771E-04  1.76575948818E-04
  1.78350566607E-04  1.80143019601E-04  1.81953487047E-04  1.83782149993E-04
  1.85629191307E-04  1.87494795696E-04  1.89379149720E-04  1.91282441817E-04
  1.93204862317E-04  1.95146603465E-04  1.97107859436E-04  1.99088826357E-04
  2.01089702326E-04  2.03110687434E-04  2.05151983779E-04  2.07213795494E-04
  2.09296328760E-04  2.11399791835E-04  2.13524395064E-04  2.15670350911E-04
  2.17837873973E-04  2.20027181003E-04  2.22238490936E-04  2.24472024902E-04
  2.26728006258E-04  2.29006660604E-04  2.31308215806E-04  2.33632902023E-04
  2.35980951724E-04  2.38352599718E-04  2.40748083170E-04  2.43167641631E-04
  2.45611517059E-04  2.48079953843E-04  2.50573198830E-04  2.53091501345E-04
  2.55635113221E-04  2.58204288821E-04  2.60799285066E-04  2.63420361456E-04
  2.66067780102E-04  2.68741805748E-04  2.71442705798E-04  2.74170750345E-04
  2.76926212196E-04  2.79709366898E-04  2.82520492771E-04  2.85359870928E-04
  2.88227785310E-04  2.91124522710E-04  2.94050372806E-04  2.97005628184E-04
  2.99990584372E-04  3.03005539868E-04  3.06050796171E-04  3.09126657809E-04
  3.12233432370E-04  3.15371430535E-04  3.18540966105E-04  3.21742356038E-04
  3.24975920474E-04  3.28241982773E-04  3.31540869544E-04  3.34872910678E-04
  3.38238439383E-04  3.41637792213E-04  3.45071309107E-04  3.48539333419E-04
  3.52042211955E-04  3.55580295006E-04  3.59153936383E-04  3.62763493453E-04
  3.66409327174E-04  3.70091802133E-04  3.73811286581E-04  3.77568152469E-04
  3.81362775487E-04  3.85195535100E-04  3.89066814588E-04  3.92977001082E-04
  3.96926485603E-04  4.00915663103E-04  4.04944932504E-04  4.09014696736E-04
  4.13125362778E-04  4.17277341700E-04  4.21471048705E-04  4.25706903165E-04
  4.29985328671E-04  4.34306753068E-04  4.38671608502E-04  4.43080331463E-04
  4.47533362826E-04  4.52031147898E-04  4.56574136461E-04  4.61162782819E-04
  4.65797545839E-04  4.70478889003E-04  4.75207280447E-04  4.79983193015E-04
  4.84807104302E-04  4.89679496704E-04  4.94600857463E-04  4.99571678721E-04
  5.04592457563E-04  5.09663696071E-04  5.14785901373E-04  5.19959585694E-04
  5.25185266407E-04  5.30463466085E-04  5.35794712551E-04  5.41179538935E-04
  5.46618483724E-04  5.52112090817E-04  5.57660909579E-04  5.63265494896E-04
  5.68926407233E-04  5.74644212684E-04  5.80419483035E-04  5.86252795819E-04
  5.92144734370E-04  5.98095887889E-04  6.04106851494E-04  6.10178226289E-04
  6.16310619414E-04  6.22504644115E-04  6.28760919799E-04  6.35080072099E-04
  6.41462732935E-04  6.47909540579E-04  6.54421139718E-04  6.60998181515E-04
  6.67641323682E-04  6.74351230537E-04  6.81128573077E-04  6.87974029043E-04
  6.94888282984E-04  7.01872026333E-04  7.08925957469E-04  7.16050781792E-04
  7.23247211790E-04  7.30515967111E-04  7.37857774639E-04  7.45273368558E-04
  7.52763490435E-04  7.60328889289E-04  7.67970321665E-04  7.75688551714E-04
  7.83484351264E-04  7.91358499902E-04  7.99311785049E-04  8.07345002041E-04
  8.15458954207E-04  8.23654452947E-04  8.31932317818E-04  8.40293376615E-04
  8.48738465450E-04  8.57268428838E-04  8.65884119784E-04  8.74586399864E-04
  8.83376139312E-04  8.92254217110E-04  9.01221521073E-04  9.10278947940E-04
  9.19427403460E-04  9.28667802487E-04  9.38001069067E-04  9.47428136537E-04
  9.56949947609E-04  9.66567454474E-04  9.76281618889E-04  9.86093412280E-04
  9.96003815834E-04  1.00601382060E-03  1.01612442759E-03  1.02633664786E-03
  1.03665150266E-03  1.04707002347E-03  1.05759325215E-03  1.06822224104E-03
  1.07895805305E-03  1.08980176176E-03  1.10075445155E-03  1.11181721771E-03
  1.12299116651E-03  1.13427741537E-03  1.14567709292E-03  1.15719133912E-03
  1.16882130543E-03  1.18056815484E-03  1.19243306205E-03  1.20441721356E-03
  1.21652180780E-03  1.22874805523E-03  1.24109717849E-03  1.25357041250E-03
  1.26616900460E-03  1.27889421465E-03  1.29174731519E-03  1.30472959154E-03
  1.31784234193E-03  1.33108687766E-03  1.34446452318E-03  1.35797661628E-03
  1.37162450817E-03  1.38540956365E-03  1.39933316125E-03  1.41339669333E-03
  1.42760156625E-03  1.44194920052E-03  1.45644103091E-03  1.47107850662E-03
  1.48586309141E-03  1.50079626374E-03  1.51587951695E-03  1.53111435937E-03
  1.54650231451E-03  1.56204492117E-03  1.57774373362E-03  1.59360032176E-03
  1.60961627126E-03  1.62579318372E-03  1.64213267686E-03  1.65863638464E-03
  1.67530595744E-03  1.69214306223E-03  1.70914938273E-03  1.72632661960E-03
  1.74367649057E-03  1.76120073064E-03  1.77890109225E-03  1.79677934546E-03
  1.81483727809E-03  1.83307669597E-03  1.85149942304E-03  1.87010730160E-03
  1.88890219244E-03  1.90788597508E-03  1.92706054791E-03  1.94642782840E-03
  1.96598975329E-03  1.98574827880E-03  2.00570538079E-03  2.02586305499E-03
  2.04622331718E-03  2.06678820341E-03  2.08755977018E-03  2.10854009467E-03
  2.12973127492E-03  2.15113543008E-03  2.17275470057E-03  2.19459124835E-03
  2.21664725707E-03  2.23892493237E-03  2.26142650203E-03  2.28415421623E-03
  2.30711034775E-03  2.33029719222E-03  2.35371706836E-03  2.37737231817E-03
  2.40126530719E-03  2.42539842474E-03  2.44977408415E-03  2.47439472301E-03
  2.49926280341E-03  2.52438081217E-03  2.54975126112E-03  2.57537668732E-03
  2.60125965333E-03  2.62740274748E-03  2.65380858409E-03  2.68047980376E-03
  2.70741907366E-03  2.73462908772E-03  2.76211256696E-03  2.78987225976E-03
  2.81791094212E-03  2.84623141791E-03  2.87483651922E-03  2.90372910658E-03
  2.93291206927E-03  2.96238832561E-03  2.99216082325E-03  3.02223253947E-03
  3.05260648146E-03  3.08328568664E-03  3.11427322296E-03  3.14557218919E-03
  3.17718571527E-03  3.20911696256E-03  3.24136912423E-03  3.27394542551E-03
  3.30684912406E-03  3.34008351028E-03  3.37365190763E-03  3.40755767299E-03
  3.44180419695E-03  3.47639490420E-03  3.51133325384E-03  3.54662273973E-03
  3.58226689085E-03  3.61826927164E-03  3.65463348238E-03  3.69136315951E-03
  3.72846197603E-03  3.76593364185E-03  3.80378190418E-03  3.84201054787E-03
  3.88062339582E-03  3.91962430933E-03  3.95901718855E-03  3.99880597278E-03
  4.03899464095E-03  4.07958721194E-03  4.12058774506E-03  4.16200034038E-03
  4.20382913920E-03  4.24607832445E-03  4.28875212106E-03  4.33185479646E-03
  4.37539066095E-03  4.41936406815E-03  4.46377941544E-03  4.50864114439E-03
  4.55395374122E-03  4.59972173721E-03  4.64594970921E-03  4.69264228005E-03
  4.73980411903E-03  4.78743994237E-03  4.83555451370E-03  4.88415264451E-03
  4.93323919465E-03  4.98281907282E-03  5.03289723705E-03  5.08347869520E-03
  5.13456850546E-03  5.18617177684E-03  5.23829366973E-03  5.29093939634E-03
  5.34411422131E-03  5.39782346215E-03  5.45207248984E-03  5.50686672931E-03
  5.56221166005E-03  5.61811281660E-03  5.67457578910E-03  5.73160622391E-03
  5.78920982412E-03  5.84739235014E-03  5.90615962027E-03  5.96551751128E-03
  6.02547195901E-03  6.08602895896E-03  6.14719456687E-03  6.20897489937E-03
  6.27137613453E-03  6.33440451253E-03  6.39806633626E-03  6.46236797195E-03
  6.52731584983E-03  6.59291646473E-03  6.65917637678E-03  6.72610221201E-03
  6.79370066306E-03  6.86197848984E-03  6.93094252020E-03  7.00059965057E-03
  7.07095684675E-03  7.14202114451E-03  7.21379965033E-03  7.28629954213E-03
  7.35952806995E-03  7.43349255671E-03  7.50820039893E-03  7.58365906744E-03
  7.65987610817E-03  7.73685914291E-03  7.81461587000E-03  7.89315406519E-03
  7.97248158237E-03  8.05260635434E-03  8.13353639367E-03  8.21527979341E-03
  8.29784472798E-03  8.38123945393E-03  8.46547231082E-03  8.55055172199E-03
  8.63648619545E-03  8.72328432474E-03  8.81095478973E-03  8.89950635753E-03
  8.98894788339E-03  9.07928831153E-03  9.17053667607E-03  9.26270210191E-03
  9.35579380569E-03  9.44982109664E-03  9.54479337758E-03  9.64072014581E-03
  9.73761099408E-03  9.83547561157E-03  9.93432378482E-03  1.00341653987E-02
  1.01350104375E-02  1.02368689858E-02  1.03397512296E-02  1.04436674570E-02
  1.05486280599E-02  1.06546435345E-02  1.07617244822E-02  1.08698816114E-02
  1.09791257377E-02  1.10894677858E-02  1.12009187900E-02  1.13134898953E-02
  1.14271923590E-02  1.15420375516E-02  1.16580369574E-02  1.17752021767E-02
  1.18935449261E-02  1.20130770398E-02  1.21338104712E-02  1.22557572938E-02
  1.23789297024E-02  1.25033400142E-02  1.26290006705E-02  1.27559242373E-02
  1.28841234072E-02  1.30136110002E-02  1.31443999651E-02  1.32765033810E-02
  1.34099344583E-02  1.35447065401E-02  1.36808331040E-02  1.38183277625E-02
  1.39572042654E-02  1.40974765003E-02  1.42391584946E-02  1.43822644166E-02
  1.45268085770E-02  1.46728054304E-02  1.48202695766E-02  1.49692157620E-02
  1.51196588816E-02  1.52716139796E-02  1.54250962517E-02  1.55801210463E-02
  1.57367038661E-02  1.58948603693E-02  1.60546063717E-02  1.62159578483E-02
  1.63789309341E-02  1.65435419266E-02  1.67098072871E-02  1.68777436423E-02
  1.70473677859E-02  1.72186966805E-02  1.73917474591E-02  1.75665374270E-02
  1.77430840632E-02  1.79214050226E-02  1.81015181375E-02  1.82834414193E-02
  1.84671930604E-02  1.86527914362E-02  1.88402551067E-02  1.90296028185E-02
  1.92208535063E-02  1.94140262956E-02  1.96091405036E-02  1.98062156421E-02
  2.00052714186E-02  2.02063277389E-02  2.04094047088E-02  2.06145226362E-02
  2.08217020331E-02  2.10309636175E-02  2.12423283158E-02  2.14558172646E-02
  2.16714518131E-02  2.18892535247E-02  2.21092441800E-02  2.23314457781E-02
  2.25558805394E-02  2.27825709076E-02  2.30115395518E-02  2.32428093692E-02
  2.34764034868E-02  2.37123452644E-02  2.39506582963E-02  2.41913664139E-02
  2.44344936884E-02  2.46800644326E-02  2.49281032038E-02  2.51786348061E-02
  2.54316842928E-02  2.56872769692E-02  2.59454383947E-02  2.62061943856E-02
  2.64695710178E-02  2.67355946292E-02  2.70042918223E-02  2.72756894671E-02
  2.75498147036E-02  2.78266949445E-02  2.81063578781E-02  2.83888314709E-02
  2.86741439705E-02  2.89623239084E-02  2.92534001028E-02  2.95474016616E-02
  2.98443579852E-02  3.01442987695E-02  3.04472540088E-02  3.07532539988E-02
  3.10623293399E-02  3.13745109398E-02  3.16898300169E-02  3.20083181035E-02
  3.23300070485E-02  3.26549290212E-02  3.29831165139E-02  3.33146023459E-02
  3.36494196658E-02  3.39876019557E-02  3.43291830341E-02  3.46741970595E-02
  3.50226785335E-02  3.53746623045E-02  3.57301835712E-02  3.60892778860E-02
  3.64519811587E-02  3.68183296599E-02  3.71883600247E-02  3.75621092566E-02
  3.79396147306E-02  3.83209141978E-02  3.87060457883E-02  3.90950480156E-02
  3.94879597804E-02  3.98848203740E-02  4.02856694828E-02  4.06905471922E-02
  4.10994939903E-02  4.15125507719E-02  4.19297588433E-02  4.23511599255E-02
  4.27767961589E-02  4.32067101076E-02  4.36409447634E-02  4.40795435500E-02
  4.45225503276E-02  4.49700093974E-02  4.54219655057E-02  4.58784638483E-02
  4.63395500755E-02  4.68052702964E-02  4.72756710833E-02  4.77507994767E-02
  4.82307029898E-02  4.87154296135E-02  4.92050278207E-02  4.96995465716E-02
  5.01990353187E-02  5.07035440111E-02  5.12131231002E-02  5.17278235442E-02
  5.22476968138E-02  5.27727948965E-02  5.33031703027E-02  5.38388760704E-02
  5.43799657705E-02  5.49264935125E-02  5.54785139497E-02  5.60360822845E-02
  5.65992542742E-02  5.71680862365E-02  5.77426350550E-02  5.83229581852E-02
  5.89091136598E-02  5.95011600949E-02  6.00991566955E-02  6.07031632619E-02
  6.13132401952E-02  6.19294485037E-02  6.25518498086E-02  6.31805063506E-02
  6.38154809959E-02  6.44568372424E-02  6.51046392264E-02  6.57589517286E-02
  6.64198401808E-02  6.70873706723E-02  6.77616099568E-02  6.84426254587E-02
  6.91304852803E-02  6.98252582079E-02  7.05270137196E-02  7.12358219915E-02
  7.19517539048E-02  7.26748810536E-02  7.34052757510E-02  7.41430110372E-02
  7.48881606862E-02  7.56407992137E-02  7.64010018842E-02  7.71688447185E-02
  7.79444045017E-02  7.87277587902E-02  7.95189859202E-02  8.03181650150E-02
  8.11253759933E-02  8.19406995768E-02  8.27642172986E-02  8.35960115110E-02
  8.44361653943E-02  8.52847629644E-02  8.61418890819E-02  8.70076294602E-02
  8.78820706738E-02  8.87653001678E-02  8.96574062658E-02  9.05584781791E-02
  9.14686060157E-02  9.23878807891E-02  9.33163944276E-02  9.42542397833E-02
  9.52015106415E-02  9.61583017301E-02  9.71247087290E-02  9.81008282797E-02
  9.90867579950E-02  1.00082596469E-01  1.01088443285E-01  1.02104399031E-01
  1.03130565301E-01  1.04167044714E-01  1.05213940918E-01  1.06271358604E-01
  1.07339403514E-01  1.08418182454E-01  1.09507803303E-01  1.10608375023E-01
  1.11720007673E-01  1.12842812416E-01  1.13976901535E-01  1.15122388440E-01
  1.16279387679E-01  1.17448014953E-01  1.18628387127E-01  1.19820622239E-01
  1.21024839512E-01  1.22241159371E-01  1.23469703447E-01  1.24710594596E-01
  1.25963956909E-01  1.27229915723E-01  1.28508597634E-01  1.29800130512E-01
  1.31104643511E-01  1.32422267084E-01  1.33753132994E-01  1.35097374328E-01
  1.36455125513E-01  1.37826522324E-01  1.39211701902E-01  1.40610802766E-01
  1.42023964828E-01  1.43451329404E-01  1.44893039233E-01  1.46349238487E-01
  1.47820072786E-01  1.49305689216E-01  1.50806236339E-01  1.52321864212E-01
  1.53852724398E-01  1.55398969984E-01  1.56960755597E-01  1.58538237417E-01
  1.60131573192E-01  1.61740922258E-01  1.63366445551E-01  1.65008305625E-01
  1.66666666667E-01  1.68341694514E-01  1.70033556671E-01  1.71742422326E-01
  1.73468462365E-01  1.75211849396E-01  1.76972757758E-01  1.78751363542E-01
  1.80547844612E-01  1.82362380618E-01  1.84195153013E-01  1.86046345076E-01
  1.87916141930E-01  1.89804730554E-01  1.91712299810E-01  1.93639040455E-01
  1.95585145165E-01  1.97550808553E-01  1.99536227187E-01  2.01541599610E-01
  2.03567126360E-01  2.05613009993E-01  2.07679455098E-01  2.09766668322E-01
  2.11874858387E-01  2.14004236115E-01  2.16155014444E-01  2.18327408456E-01
  2.20521635390E-01  2.22737914671E-01  2.24976467929E-01  2.27237519022E-01
  2.29521294056E-01  2.31828021411E-01  2.34157931761E-01  2.36511258099E-01
  2.38888235760E-01  2.41289102444E-01  2.43714098239E-01  2.46163465647E-01
  2.48637449607E-01  2.51136297519E-01  2.53660259270E-01  2.56209587258E-01
  2.58784536419E-01  2.61385364248E-01  2.64012330832E-01  2.66665698870E-01
  2.69345733699E-01  2.72052703326E-01  2.74786878450E-01  2.77548532491E-01
  2.80337941616E-01  2.83155384770E-01  2.86001143697E-01  2.88875502978E-01
  2.91778750049E-01  2.94711175239E-01  2.97673071792E-01  3.00664735900E-01
  3.03686466732E-01  3.06738566464E-01  3.09821340308E-01  3.12935096544E-01
  3.16080146551E-01  3.19256804836E-01  3.22465389067E-01  3.25706220106E-01
  3.28979622038E-01  3.32285922207E-01  3.35625451245E-01  3.38998543108E-01
  3.42405535107E-01  3.45846767946E-01  3.49322585749E-01  3.52833336102E-01
  3.56379370083E-01  3.59961042297E-01  3.63578710916E-01  3.67232737709E-01
  3.70923488082E-01  3.74651331113E-01  3.78416639589E-01  3.82219790044E-01
  3.86061162797E-01  3.89941141988E-01  3.93860115618E-01  3.97818475587E-01
  4.01816617736E-01  4.05854941882E-01  4.09933851859E-01  4.14053755564E-01
  4.18215064989E-01  4.22418196270E-01  4.26663569722E-01  4.30951609886E-01
  4.35282745571E-01  4.39657409892E-01  4.44076040322E-01  4.48539078725E-01
  4.53046971410E-01  4.57600169169E-01  4.62199127327E-01  4.66844305783E-01
  4.71536169059E-01  4.76275186344E-01  4.81061831545E-01  4.85896583329E-01
  4.90779925178E-01  4.95712345427E-01  5.00694337324E-01  5.05726399073E-01
  5.10809033882E-01  5.15942750021E-01  5.21128060864E-01  5.26365484948E-01
  5.31655546019E-01  5.36998773088E-01  5.42395700482E-01  5.47846867897E-01
  5.53352820456E-01  5.58914108758E-01  5.64531288937E-01  5.70204922715E-01
  5.75935577460E-01  5.81723826244E-01  5.87570247894E-01  5.93475427059E-01
  5.99439954262E-01  6.05464425959E-01  6.11549444603E-01  6.17695618702E-01
  6.23903562877E-01  6.30173897928E-01  6.36507250894E-01  6.42904255116E-01
  6.49365550299E-01  6.55891782578E-01  6.62483604582E-01  6.69141675499E-01
  6.75866661141E-01  6.82659234012E-01  6.89520073375E-01  6.96449865321E-01
  7.03449302833E-01  7.10519085861E-01  7.17659921391E-01  7.24872523510E-01
  7.32157613486E-01  7.39515919834E-01  7.46948178390E-01  7.54455132386E-01
  7.62037532524E-01  7.69696137050E-01  7.77431711831E-01  7.85245030432E-01
  7.93136874190E-01  8.01108032296E-01  8.09159301873E-01  8.17291488054E-01
  8.25505404066E-01  8.33801871306E-01  8.42181719427E-01  8.50645786423E-01
  8.59194918706E-01  8.67829971197E-01  8.76551807408E-01  8.85361299530E-01
  8.94259328520E-01  9.03246784189E-01  9.12324565288E-01  9.21493579604E-01
  9.30754744046E-01  9.40108984738E-01  9.49557237112E-01  9.59100446001E-01
  9.68739565734E-01  9.78475560230E-01  9.88309403099E-01  9.98242077731E-01
  1.00827457740E+00  1.01840790537E+00  1.02864307498E+00  1.03898110975E+00
  1.04942304350E+00  1.05996992043E+00  1.07062279524E+00  1.08138273321E+00
  1.09225081037E+00  1.10322811351E+00  1.11431574038E+00  1.12551479976E+00
  1.13682641155E+00  1.14825170693E+00  1.15979182844E+00  1.17144793010E+00
  1.18322117753E+00  1.19511274806E+00  1.20712383086E+00  1.21925562705E+00
  1.23150934982E+00  1.24388622455E+00  1.25638748894E+00  1.26901439313E+00
  1.28176819981E+00  1.29465018438E+00  1.30766163505E+00  1.32080385297E+00
  1.33407815238E+00  1.34748586072E+00  1.36102831876E+00  1.37470688077E+00
  1.38852291461E+00  1.40247780191E+00  1.41657293815E+00  1.43080973286E+00
  1.44518960974E+00  1.45971400679E+00  1.47438437645E+00  1.48920218578E+00
  1.50416891657E+00  1.51928606551E+00  1.53455514431E+00  1.54997767991E+00
  1.56555521457E+00  1.58128930606E+00  1.59718152779E+00  1.61323346901E+00
  1.62944673492E+00  1.64582294686E+00  1.66236374247E+00  1.67907077584E+00
  1.69594571768E+00  1.71299025551E+00  1.73020609379E+00  1.74759495412E+00
  1.76515857541E+00  1.78289871402E+00  1.80081714399E+00  1.81891565717E+00
  1.83719606344E+00  1.85566019084E+00  1.87430988581E+00  1.89314701333E+00
  1.91217345713E+00  1.93139111987E+00  1.95080192333E+00  1.97040780861E+00
  1.99021073631E+00  2.01021268674E+00  2.03041566012E+00  2.05082167675E+00
  2.07143277726E+00  2.09225102278E+00  2.11327849514E+00  2.13451729711E+00
  2.15596955259E+00  2.17763740682E+00  2.19952302661E+00  2.22162860053E+00
  2.24395633917E+00  2.26650847531E+00  2.28928726418E+00  2.31229498369E+00
  2.33553393462E+00  2.35900644090E+00  2.38271484978E+00  2.40666153213E+00
  2.43084888265E+00  2.45527932007E+00  2.47995528748E+00  2.50487925248E+00
  2.53005370749E+00  2.55548116998E+00  2.58116418272E+00  2.60710531403E+00
  2.63330715804E+00  2.65977233497E+00  2.68650349134E+00  2.71350330030E+00
  2.74077446185E+00  2.76831970313E+00  2.79614177869E+00  2.82424347076E+00
  2.85262758952E+00  2.88129697343E+00  2.91025448943E+00  2.93950303331E+00
  2.96904552994E+00  2.99888493359E+00  3.02902422824E+00  3.05946642784E+00
  3.09021457662E+00  3.12127174945E+00  3.15264105204E+00  3.18432562137E+00
  3.21632862592E+00  3.24865326601E+00  3.28130277413E+00  3.31428041526E+00
  3.34758948720E+00  3.38123332087E+00  3.41521528070E+00  3.44953876490E+00
  3.48420720585E+00  3.51922407042E+00  3.55459286034E+00  3.59031711250E+00
  3.62640039937E+00  3.66284632929E+00  3.69965854691E+00  3.73684073346E+00
  3.77439660720E+00  3.81232992374E+00  3.85064447645E+00  3.88934409682E+00
  3.92843265484E+00  3.96791405940E+00  4.00779225868E+00  4.04807124052E+00
  4.08875503285E+00  4.12984770410E+00  4.17135336356E+00  4.21327616183E+00
  4.25562029123E+00  4.29838998620E+00  4.34158952375E+00  4.38522322388E+00
  4.42929544998E+00  4.47381060932E+00  4.51877315344E+00  4.56418757865E+00
  4.61005842642E+00  4.65639028387E+00  4.70318778423E+00  4.75045560729E+00
  4.79819847987E+00  4.84642117630E+00  4.89512851888E+00  4.94432537839E+00
  4.99401667457E+00  5.04420737657E+00  5.09490250351E+00  5.14610712495E+00
  5.19782636138E+00  5.25006538479E+00  5.30282941911E+00  5.35612374079E+00
  5.40995367931E+00  5.46432461771E+00  5.51924199312E+00  5.57471129732E+00
  5.63073807731E+00  5.68732793579E+00  5.74448653181E+00  5.80221958127E+00
  5.86053285752E+00  5.91943219194E+00  5.97892347451E+00  6.03901265441E+00
  6.09970574061E+00  6.16100880247E+00  6.22292797034E+00  6.28546943620E+00
  6.34863945423E+00  6.41244434151E+00  6.47689047856E+00  6.54198431005E+00
  6.60773234543E+00  6.67414115955E+00  6.74121739334E+00  6.80896775450E+00
  6.87739901810E+00  6.94651802734E+00  7.01633169417E+00  7.08684700001E+00
  7.15807099646E+00  7.23001080598E+00  7.30267362260E+00  7.37606671266E+00
  7.45019741555E+00  7.52507314439E+00  7.60070138681E+00  7.67708970570E+00
  7.75424573996E+00  7.83217720526E+00  7.91089189481E+00  7.99039768014E+00
  8.07070251189E+00  8.15181442062E+00  8.23374151759E+00  8.31649199557E+00
  8.40007412968E+00  8.48449627820E+00  8.56976688342E+00  8.65589447247E+00
  8.74288765818E+00  8.83075513995E+00  8.91950570458E+00  9.00914822722E+00
  9.09969167219E+00  9.19114509391E+00  9.28351763780E+00  9.37681854119E+00
  9.47105713424E+00  9.56624284091E+00  9.66238517983E+00  9.75949376532E+00
  9.85757830831E+00  9.95664861736E+00  1.00567145996E+01  1.01577862616E+01
  1.02598737107E+01  1.03629871558E+01  1.04671369082E+01  1.05723333830E+01
  1.06785871000E+01  1.07859086846E+01  1.08943088690E+01  1.10037984934E+01
  1.11143885068E+01  1.12260899684E+01  1.13389140482E+01  1.14528720290E+01
  1.15679753065E+01  1.16842353911E+01  1.18016639090E+01  1.19202726032E+01
  1.20400733346E+01  1.21610780833E+01  1.22832989499E+01  1.24067481567E+01
  1.25314380487E+01  1.26573810949E+01  1.27845898897E+01  1.29130771542E+01
  1.30428557372E+01  1.31739386166E+01  1.33063389008E+01  1.34400698301E+01
  1.35751447775E+01  1.37115772507E+01  1.38493808931E+01  1.39885694850E+01
  1.41291569456E+01  1.42711573337E+01  1.44145848494E+01  1.45594538356E+01
  1.47057787793E+01  1.48535743131E+01  1.50028552168E+01  1.51536364184E+01
  1.53059329964E+01  1.54597601804E+01  1.56151333532E+01  1.57720680525E+01
  1.59305799717E+01  1.60906849621E+01  1.62523990345E+01  1.64157383603E+01
  1.65807192737E+01  1.67473582727E+01  1.69156720216E+01  1.70856773517E+01
  1.72573912639E+01  1.74308309295E+01  1.76060136928E+01  1.77829570721E+01
  1.79616787619E+01  1.81421966346E+01  1.83245287420E+01  1.85086933176E+01
  1.86947087780E+01  1.88825937248E+01  1.90723669467E+01  1.92640474212E+01
  1.94576543165E+01  1.96532069934E+01  1.98507250075E+01  2.00502281105E+01
  2.02517362531E+01  2.04552695862E+01  2.06608484633E+01  2.08684934425E+01
  2.10782252884E+01  2.12900649743E+01  2.15040336846E+01  2.17201528161E+01
  2.19384439810E+01  2.21589290085E+01  2.23816299475E+01  2.26065690681E+01
  2.28337688644E+01  2.30632520567E+01  2.32950415933E+01  2.35291606536E+01
  2.37656326495E+01  2.40044812285E+01  2.42457302756E+01  2.44894039159E+01
  2.47355265171E+01  2.49841226915E+01  2.52352172990E+01  2.54888354493E+01
  2.57450025043E+01  2.60037440811E+01  2.62650860539E+01  2.65290545572E+01
  2.67956759881E+01  2.70649770089E+01  2.73369845500E+01  2.76117258123E+01
  2.78892282702E+01  2.81695196741E+01  2.84526280536E+01  2.87385817195E+01
  2.90274092675E+01  2.93191395807E+01  2.96138018322E+01  2.99114254886E+01
  3.02120403125E+01  3.05156763656E+01  3.08223640118E+01  3.11321339200E+01
  3.14450170676E+01  3.17610447431E+01  3.20802485495E+01  3.24026604076E+01
  3.27283125586E+01  3.30572375682E+01  3.33894683291E+01  3.37250380647E+01
  3.40639803322E+01  3.44063290261E+01  3.47521183815E+01  3.51013829778E+01
  3.54541577416E+01  3.58104779507E+01  3.61703792375E+01  3.65338975923E+01
  3.69010693674E+01  3.72719312801E+01  3.76465204170E+01  3.80248742373E+01
  3.84070305768E+01  3.87930276513E+01  3.91829040609E+01  3.95766987935E+01
  3.99744512290E+01  4.03762011430E+01  4.07819887107E+01  4.11918545113E+01
  4.16058395316E+01  4.20239851706E+01  4.24463332431E+01  4.28729259843E+01
  4.33038060538E+01  4.37390165400E+01  4.41786009644E+01  4.46226032856E+01
  4.50710679044E+01  4.55240396675E+01  4.59815638725E+01  4.64436862722E+01
  4.69104530792E+01  4.73819109707E+01  4.78581070927E+01  4.83390890653E+01
  4.88249049871E+01  4.93156034401E+01  4.98112334945E+01  5.03118447138E+01
  5.08174871595E+01  5.13282113962E+01  5.18440684969E+01  5.23651100476E+01
  5.28913881530E+01  5.34229554412E+01  5.39598650695E+01  5.45021707293E+01
  5.50499266516E+01  5.56031876124E+01  5.61620089383E+01  5.67264465120E+01
  5.72965567775E+01  5.78723967465E+01  5.84540240033E+01  5.90414967113E+01
  5.96348736181E+01
  </PP_R>
  <PP_RAB>
  5.59104379838E-07  5.64723472272E-07  5.70399037525E-07  5.76131643157E-07
  5.81921862433E-07  5.87770274380E-07  5.93677463845E-07  5.99644021551E-07
  6.05670544158E-07  6.11757634325E-07  6.17905900765E-07  6.24115958310E-07
  6.30388427971E-07  6.36723937000E-07  6.43123118953E-07  6.49586613755E-07
  6.56115067758E-07  6.62709133816E-07  6.69369471339E-07  6.76096746367E-07
  6.82891631633E-07  6.89754806631E-07  6.96686957685E-07  7.03688778015E-07
  7.10760967809E-07  7.17904234293E-07  7.25119291798E-07  7.32406861836E-07
  7.39767673171E-07  7.47202461890E-07  7.54711971478E-07  7.62296952892E-07
  7.69958164636E-07  7.77696372838E-07  7.85512351326E-07  7.93406881704E-07
  8.01380753431E-07  8.09434763901E-07  8.17569718522E-07  8.25786430796E-07
  8.34085722401E-07  8.42468423274E-07  8.50935371691E-07  8.59487414354E-07
  8.68125406475E-07  8.76850211860E-07  8.85662702997E-07  8.94563761142E-07
  9.03554276409E-07  9.12635147857E-07  9.21807283580E-07  9.31071600799E-07
  9.40429025954E-07  9.49880494796E-07  9.59426952479E-07  9.69069353656E-07
  9.78808662577E-07  9.88645853179E-07  9.98581909190E-07  1.00861782423E-06
  1.01875460188E-06  1.02899325585E-06  1.03933481000E-06  1.04978029850E-06
  1.06033076590E-06  1.07098726726E-06  1.08175086824E-06  1.09262264521E-06
  1.10360368535E-06  1.11469508679E-06  1.12589795866E-06  1.13721342126E-06
  1.14864260615E-06  1.16018665627E-06  1.17184672601E-06  1.18362398140E-06
  1.19551960018E-06  1.20753477192E-06  1.21967069813E-06  1.23192859244E-06
  1.24430968063E-06  1.25681520082E-06  1.26944640358E-06  1.28220455205E-06
  1.29509092203E-06  1.30810680218E-06  1.32125349411E-06  1.33453231249E-06
  1.34794458521E-06  1.36149165351E-06  1.37517487211E-06  1.38899560934E-06
  1.40295524730E-06  1.41705518194E-06  1.43129682329E-06  1.44568159551E-06
  1.46021093710E-06  1.47488630099E-06  1.48970915475E-06  1.50468098066E-06
  1.51980327592E-06  1.53507755278E-06  1.55050533867E-06  1.56608817639E-06