<PP_INFO>
Generated using Vanderbilt code, version   7  3  2                              
Author: Yi Yao    Generation date:    0    0    0                               
Automatically converted from original format                                    
    0        The Pseudo was generated with a Non-Relativistic Calculation
nl pn  l   occ               Rcut            Rcut US             E pseu
0S  0  0  2.00      0.00000000000      0.00000000000      0.00000000000
0P  0  1  5.00      0.00000000000      0.00000000000      0.00000000000
0D  0  2  0.00      0.00000000000      0.00000000000      0.00000000000
</PP_INFO>


<PP_HEADER>
   0                   Version Number
  Cl                   Element
   NC                  Norm - Conserving pseudopotential
    F                  Nonlinear Core Correction
 SLA  PW   SCAN SCAN   SCAN Exchange-Correlation functional
    7.00000000000      Z valence
    0.00000000000      Total energy
    0.00000    0.00000 Suggested cutoff for wfc and rho
    1                  Max angular momentum component
 1493                  Number of points in mesh
    3    2             Number of Wavefunctions, Number of Projectors
 Wavefunctions         nl  l   occ
                       0S  0  2.00
                       0P  1  5.00
                       0D  2  0.00
</PP_HEADER>


<PP_MESH>
  <PP_R>
  1.97330957590E-05  1.99314166684E-05  2.01317307362E-05  2.03340579938E-05
  2.05384186741E-05  2.07448332134E-05  2.09533222534E-05  2.11639066430E-05
  2.13766074409E-05  2.15914459174E-05  2.18084435564E-05  2.20276220580E-05
  2.22490033402E-05  2.24726095412E-05  2.26984630219E-05  2.29265863678E-05
  2.31570023915E-05  2.33897341347E-05  2.36248048708E-05  2.38622381071E-05
  2.41020575870E-05  2.43442872929E-05  2.45889514477E-05  2.48360745182E-05
  2.50856812168E-05  2.53377965045E-05  2.55924455929E-05  2.58496539472E-05
  2.61094472884E-05  2.63718515961E-05  2.66368931110E-05  2.69045983374E-05
  2.71749940460E-05  2.74481072767E-05  2.77239653409E-05  2.80025958248E-05
  2.82840265917E-05  2.85682857847E-05  2.88554018302E-05  2.91454034398E-05
  2.94383196142E-05  2.97341796450E-05  3.00330131185E-05  3.03348499184E-05
  3.06397202285E-05  3.09476545362E-05  3.12586836352E-05  3.15728386286E-05
  3.18901509321E-05  3.22106522773E-05  3.25343747146E-05  3.28613506164E-05
  3.31916126807E-05  3.35251939340E-05  3.38621277345E-05  3.42024477761E-05
  3.45461880909E-05  3.48933830534E-05  3.52440673832E-05  3.55982761491E-05
  3.59560447723E-05  3.63174090300E-05  3.66824050588E-05  3.70510693587E-05
  3.74234387964E-05  3.77995506092E-05  3.81794424085E-05  3.85631521839E-05
  3.89507183066E-05  3.93421795336E-05  3.97375750114E-05  4.01369442798E-05
  4.05403272760E-05  4.09477643388E-05  4.13592962121E-05  4.17749640496E-05
  4.21948094182E-05  4.26188743029E-05  4.30472011106E-05  4.34798326743E-05
  4.39168122575E-05  4.43581835584E-05  4.48039907148E-05  4.52542783075E-05
  4.57090913657E-05  4.61684753712E-05  4.66324762627E-05  4.71011404407E-05
  4.75745147720E-05  4.80526465944E-05  4.85355837215E-05  4.90233744475E-05
  4.95160675517E-05  5.00137123039E-05  5.05163584691E-05  5.10240563122E-05
  5.15368566034E-05  5.20548106233E-05  5.25779701676E-05  5.31063875527E-05
  5.36401156209E-05  5.41792077453E-05  5.47237178356E-05  5.52737003433E-05
  5.58292102671E-05  5.63903031585E-05  5.69570351271E-05  5.75294628468E-05
  5.81076435607E-05  5.86916350873E-05  5.92814958264E-05  5.98772847644E-05
  6.04790614809E-05  6.10868861538E-05  6.17008195663E-05  6.23209231122E-05
  6.29472588023E-05  6.35798892708E-05  6.42188777811E-05  6.48642882328E-05
  6.55161851673E-05  6.61746337750E-05  6.68396999012E-05  6.75114500530E-05
  6.81899514062E-05  6.88752718112E-05  6.95674798009E-05  7.02666445965E-05
  7.09728361152E-05  7.16861249766E-05  7.24065825102E-05  7.31342807624E-05
  7.38692925037E-05  7.46116912357E-05  7.53615511991E-05  7.61189473803E-05
  7.68839555198E-05  7.76566521189E-05  7.84371144478E-05  7.92254205536E-05
  8.00216492675E-05  8.08258802130E-05  8.16381938139E-05  8.24586713022E-05
  8.32873947263E-05  8.41244469593E-05  8.49699117071E-05  8.58238735169E-05
  8.66864177855E-05  8.75576307682E-05  8.84375995869E-05  8.93264122393E-05
  9.02241576073E-05  9.11309254663E-05  9.20468064938E-05  9.29718922786E-05
  9.39062753301E-05  9.48500490875E-05  9.58033079287E-05  9.67661471806E-05
  9.77386631279E-05  9.87209530229E-05  9.97131150955E-05  1.00715248563E-04
  1.01727453639E-04  1.02749831545E-04  1.03782484520E-04  1.04825515829E-04
  1.05879029778E-04  1.06943131718E-04  1.08017928061E-04  1.09103526286E-04
  1.10200034954E-04  1.11307563718E-04  1.12426223331E-04  1.13556125660E-04
  1.14697383697E-04  1.15850111567E-04  1.17014424545E-04  1.18190439063E-04
  1.19378272723E-04  1.20578044310E-04  1.21789873802E-04  1.23013882383E-04
  1.24250192455E-04  1.25498927649E-04  1.26760212841E-04  1.28034174160E-04
  1.29320939003E-04  1.30620636047E-04  1.31933395264E-04  1.33259347930E-04
  1.34598626642E-04  1.35951365330E-04  1.37317699266E-04  1.38697765088E-04
  1.40091700801E-04  1.41499645801E-04  1.42921740884E-04  1.44358128260E-04
  1.45808951569E-04  1.47274355894E-04  1.48754487778E-04  1.50249495235E-04
  1.51759527766E-04  1.53284736377E-04  1.54825273589E-04  1.56381293457E-04
  1.57952951586E-04  1.59540405140E-04  1.61143812869E-04  1.62763335113E-04
  1.64399133826E-04  1.66051372589E-04  1.67720216628E-04  1.69405832829E-04
  1.71108389754E-04  1.72828057660E-04  1.74565008517E-04  1.76319416019E-04
  1.78091455610E-04  1.79881304495E-04  1.81689141661E-04  1.83515147892E-04
  1.85359505791E-04  1.87222399795E-04  1.89104016195E-04  1.91004543154E-04
  1.92924170726E-04  1.94863090876E-04  1.96821497498E-04  1.98799586434E-04
  2.00797555494E-04  2.02815604477E-04  2.04853935189E-04  2.06912751465E-04
  2.08992259189E-04  2.11092666314E-04  2.13214182880E-04  2.15357021043E-04
  2.17521395087E-04  2.19707521452E-04  2.21915618752E-04  2.24145907800E-04
  2.26398611624E-04  2.28673955499E-04  2.30972166959E-04  2.33293475829E-04
  2.35638114241E-04  2.38006316660E-04  2.40398319910E-04  2.42814363191E-04
  2.45254688112E-04  2.47719538706E-04  2.50209161460E-04  2.52723805338E-04
  2.55263721808E-04  2.57829164863E-04  2.60420391049E-04  2.63037659491E-04
  2.65681231918E-04  2.68351372690E-04  2.71048348823E-04  2.73772430017E-04
  2.76523888681E-04  2.79302999965E-04  2.82110041782E-04  2.84945294838E-04
  2.87809042661E-04  2.90701571628E-04  2.93623170995E-04  2.96574132923E-04
  2.99554752512E-04  3.02565327825E-04  3.05606159924E-04  3.08677552893E-04
  3.11779813875E-04  3.14913253098E-04  3.18078183908E-04  3.21274922802E-04
  3.24503789457E-04  3.27765106760E-04  3.31059200847E-04  3.34386401131E-04
  3.37747040333E-04  3.41141454520E-04  3.44569983137E-04  3.48032969040E-04
  3.51530758530E-04  3.55063701388E-04  3.58632150913E-04  3.62236463951E-04
  3.65877000938E-04  3.69554125929E-04  3.73268206642E-04  3.77019614486E-04
  3.80808724605E-04  3.84635915915E-04  3.88501571136E-04  3.92406076839E-04
  3.96349823476E-04  4.00333205425E-04  4.04356621029E-04  4.08420472632E-04
  4.12525166623E-04  4.16671113474E-04  4.20858727783E-04  4.25088428316E-04
  4.29360638046E-04  4.33675784198E-04  4.38034298290E-04  4.42436616176E-04
  4.46883178093E-04  4.51374428700E-04  4.55910817126E-04  4.60492797013E-04
  4.65120826564E-04  4.69795368586E-04  4.74516890535E-04  4.79285864569E-04
  4.84102767589E-04  4.88968081290E-04  4.93882292205E-04  4.98845891762E-04
  5.03859376323E-04  5.08923247242E-04  5.14038010910E-04  5.19204178807E-04
  5.24422267555E-04  5.29692798967E-04  5.35016300100E-04  5.40393303309E-04
  5.45824346298E-04  5.51309972177E-04  5.56850729512E-04  5.62447172385E-04
  5.68099860443E-04  5.73809358961E-04  5.79576238893E-04  5.85401076932E-04
  5.91284455567E-04  5.97226963139E-04  6.03229193906E-04  6.09291748095E-04
  6.15415231966E-04  6.21600257874E-04  6.27847444325E-04  6.34157416044E-04
  6.40530804033E-04  6.46968245636E-04  6.53470384602E-04  6.60037871152E-04
  6.66671362039E-04  6.73371520618E-04  6.80139016910E-04  6.86974527670E-04
  6.93878736456E-04  7.00852333694E-04  7.07896016748E-04  7.15010489995E-04
  7.22196464886E-04  7.29454660026E-04  7.36785801240E-04  7.44190621647E-04
  7.51669861737E-04  7.59224269440E-04  7.66854600202E-04  7.74561617064E-04
  7.82346090732E-04  7.90208799661E-04  7.98150530129E-04  8.06172076316E-04
  8.14274240381E-04  8.22457832549E-04  8.30723671186E-04  8.39072582882E-04
  8.47505402536E-04  8.56022973436E-04  8.64626147347E-04  8.73315784593E-04
  8.82092754146E-04  8.90957933709E-04  8.99912209807E-04  9.08956477877E-04
  9.18091642352E-04  9.27318616756E-04  9.36638323795E-04  9.46051695446E-04
  9.55559673056E-04  9.65163207429E-04  9.74863258927E-04  9.84660797564E-04
  9.94556803100E-04  1.00455226515E-03  1.01464818326E-03  1.02484556703E-03
  1.03514543621E-03  1.04554882080E-03  1.05605676115E-03  1.06667030805E-03
  1.07739052287E-03  1.08821847764E-03  1.09915525516E-03  1.11020194913E-03
  1.12135966421E-03  1.13262951620E-03  1.14401263208E-03  1.15551015018E-03
  1.16712322026E-03  1.17885300363E-03  1.19070067328E-03  1.20266741400E-03
  1.21475442245E-03  1.22696290737E-03  1.23929408959E-03  1.25174920226E-03
  1.26432949089E-03  1.27703621352E-03  1.28987064084E-03  1.30283405630E-03
  1.31592775625E-03  1.32915305007E-03  1.34251126030E-03  1.35600372278E-03
  1.36963178676E-03  1.38339681506E-03  1.39730018419E-03  1.41134328451E-03
  1.42552752033E-03  1.43985431010E-03  1.45432508649E-03  1.46894129660E-03
  1.48370440207E-03  1.49861587922E-03  1.51367721920E-03  1.52888992816E-03
  1.54425552739E-03  1.55977555346E-03  1.57545155839E-03  1.59128510979E-03
  1.60727779102E-03  1.62343120137E-03  1.63974695619E-03  1.65622668708E-03
  1.67287204201E-03  1.68968468554E-03  1.70666629895E-03  1.72381858041E-03
  1.74114324517E-03  1.75864202570E-03  1.77631667190E-03  1.79416895125E-03
  1.81220064899E-03  1.83041356830E-03  1.84880953049E-03  1.86739037518E-03
  1.88615796046E-03  1.90511416311E-03  1.92426087877E-03  1.94360002211E-03
  1.96313352708E-03  1.98286334703E-03  2.00279145498E-03  2.02291984373E-03
  2.04325052616E-03  2.06378553534E-03  2.08452692480E-03  2.10547676869E-03
  2.12663716200E-03  2.14801022081E-03  2.16959808243E-03  2.19140290566E-03
  2.21342687101E-03  2.23567218089E-03  2.25814105986E-03  2.28083575481E-03
  2.30375853523E-03  2.32691169344E-03  2.35029754474E-03  2.37391842777E-03
  2.39777670461E-03  2.42187476112E-03  2.44621500713E-03  2.47079987667E-03
  2.49563182827E-03  2.52071334512E-03  2.54604693541E-03  2.57163513251E-03
  2.59748049528E-03  2.62358560825E-03  2.64995308197E-03  2.67658555321E-03
  2.70348568524E-03  2.73065616808E-03  2.75809971882E-03  2.78581908183E-03
  2.81381702907E-03  2.84209636036E-03  2.87065990365E-03  2.89951051532E-03
  2.92865108046E-03  2.95808451315E-03  2.98781375676E-03  3.01784178423E-03
  3.04817159840E-03  3.07880623226E-03  3.10974874931E-03  3.14100224384E-03
  3.17256984120E-03  3.20445469819E-03  3.23666000332E-03  3.26918897715E-03
  3.30204487260E-03  3.33523097529E-03  3.36875060385E-03  3.40260711028E-03
  3.43680388026E-03  3.47134433350E-03  3.50623192406E-03  3.54147014073E-03
  3.57706250737E-03  3.61301258324E-03  3.64932396337E-03  3.68600027895E-03
  3.72304519763E-03  3.76046242392E-03  3.79825569960E-03  3.83642880401E-03
  3.87498555449E-03  3.91392980677E-03  3.95326545528E-03  3.99299643363E-03
  4.03312671496E-03  4.07366031231E-03  4.11460127910E-03  4.15595370944E-03
  4.19772173861E-03  4.23990954346E-03  4.28252134279E-03  4.32556139783E-03
  4.36903401261E-03  4.41294353443E-03  4.45729435429E-03  4.50209090729E-03
  4.54733767314E-03  4.59303917654E-03  4.63919998769E-03  4.68582472270E-03
  4.73291804409E-03  4.78048466123E-03  4.82852933082E-03  4.87705685736E-03
  4.92607209366E-03  4.97557994127E-03  5.02558535102E-03  5.07609332349E-03
  5.12710890953E-03  5.17863721073E-03  5.23068337996E-03  5.28325262190E-03
  5.33635019349E-03  5.38998140456E-03  5.44415161826E-03  5.49886625165E-03
  5.55413077625E-03  5.60995071856E-03  5.66633166062E-03  5.72327924056E-03
  5.78079915320E-03  5.83889715057E-03  5.89757904252E-03  5.95685069729E-03
  6.01671804209E-03  6.07718706371E-03  6.13826380910E-03  6.19995438599E-03
  6.26226496349E-03  6.32520177269E-03  6.38877110735E-03  6.45297932444E-03
  6.51783284484E-03  6.58333815396E-03  6.64950180238E-03  6.71633040652E-03
  6.78383064930E-03  6.85200928079E-03  6.92087311893E-03  6.99042905014E-03
  7.06068403009E-03  7.13164508432E-03  7.20331930900E-03  7.27571387161E-03
  7.34883601168E-03  7.42269304147E-03  7.49729234675E-03  7.57264138752E-03
  7.64874769873E-03  7.72561889109E-03  7.80326265177E-03  7.88168674522E-03
  7.96089901392E-03  8.04090737915E-03  8.12171984182E-03  8.20334448324E-03
  8.28578946594E-03  8.36906303450E-03  8.45317351634E-03  8.53812932257E-03
  8.62393894884E-03  8.71061097620E-03  8.79815407192E-03  8.88657699037E-03
  8.97588857393E-03  9.06609775383E-03  9.15721355106E-03  9.24924507727E-03
  9.34220153570E-03  9.43609222207E-03  9.53092652552E-03  9.62671392957E-03
  9.72346401303E-03  9.82118645100E-03  9.91989101580E-03  1.00195875780E-02
  1.01202861072E-02  1.02219966736E-02  1.03247294481E-02  1.04284947041E-02
  1.05333028183E-02  1.06391642716E-02  1.07460896502E-02  1.08540896466E-02
  1.09631750611E-02  1.10733568023E-02  1.11846458883E-02  1.12970534483E-02
  1.14105907230E-02  1.15252690663E-02  1.16410999461E-02  1.17580949456E-02
  1.18762657644E-02  1.19956242197E-02  1.21161822473E-02  1.22379519034E-02
  1.23609453648E-02  1.24851749310E-02  1.26106530251E-02  1.27373921951E-02
  1.28654051148E-02  1.29947045858E-02  1.31253035381E-02  1.32572150317E-02
  1.33904522579E-02  1.35250285404E-02  1.36609573370E-02  1.37982522408E-02
  1.39369269813E-02  1.40769954261E-02  1.42184715822E-02  1.43613695973E-02
  1.45057037613E-02  1.46514885077E-02  1.47987384153E-02  1.49474682090E-02
  1.50976927620E-02  1.52494270968E-02  1.54026863871E-02  1.55574859588E-02
  1.57138412921E-02  1.58717680226E-02  1.60312819432E-02  1.61923990053E-02
  1.63551353208E-02  1.65195071634E-02  1.66855309706E-02  1.68532233447E-02
  1.70226010552E-02  1.71936810401E-02  1.73664804073E-02  1.75410164371E-02
  1.77173065831E-02  1.78953684745E-02  1.80752199177E-02  1.82568788980E-02
  1.84403635813E-02  1.86256923164E-02  1.88128836363E-02  1.90019562601E-02
  1.91929290955E-02  1.93858212397E-02  1.95806519822E-02  1.97774408063E-02
  1.99762073909E-02  2.01769716129E-02  2.03797535488E-02  2.05845734771E-02
  2.07914518799E-02  2.10004094452E-02  2.12114670690E-02  2.14246458571E-02
  2.16399671277E-02  2.18574524131E-02  2.20771234618E-02  2.22990022414E-02
  2.25231109397E-02  2.27494719679E-02  2.29781079623E-02  2.32090417866E-02
  2.34422965344E-02  2.36778955314E-02  2.39158623377E-02  2.41562207501E-02
  2.43989948048E-02  2.46442087793E-02  2.48918871952E-02  2.51420548205E-02
  2.53947366723E-02  2.56499580189E-02  2.59077443827E-02  2.61681215425E-02
  2.64311155363E-02  2.66967526637E-02  2.69650594885E-02  2.72360628418E-02
  2.75097898241E-02  2.77862678083E-02  2.80655244424E-02  2.83475876524E-02
  2.86324856447E-02  2.89202469095E-02  2.92109002230E-02  2.95044746509E-02
  2.98009995509E-02  3.01005045757E-02  3.04030196760E-02  3.07085751036E-02
  3.10172014143E-02  3.13289294710E-02  3.16437904467E-02  3.19618158279E-02
  3.22830374173E-02  3.26074873373E-02  3.29351980333E-02  3.32662022764E-02
  3.36005331676E-02  3.39382241400E-02  3.42793089632E-02  3.46238217458E-02
  3.49717969394E-02  3.53232693419E-02  3.56782741007E-02  3.60368467167E-02
  3.63990230474E-02  3.67648393107E-02  3.71343320886E-02  3.75075383307E-02
  3.78844953578E-02  3.82652408661E-02  3.86498129303E-02  3.90382500080E-02
  3.94305909433E-02  3.98268749705E-02  4.02271417184E-02  4.06314312140E-02
  4.10397838865E-02  4.14522405717E-02  4.18688425154E-02  4.22896313783E-02
  4.27146492396E-02  4.31439386014E-02  4.35775423930E-02  4.40155039752E-02
  4.44578671445E-02  4.49046761375E-02  4.53559756355E-02  4.58118107689E-02
  4.62722271216E-02  4.67372707355E-02  4.72069881154E-02  4.76814262335E-02
  4.81606325340E-02  4.86446549378E-02  4.91335418477E-02  4.96273421527E-02
  5.01261052333E-02  5.06298809662E-02  5.11387197293E-02  5.16526724071E-02
  5.21717903951E-02  5.26961256057E-02  5.32257304727E-02  5.37606579571E-02
  5.43009615522E-02  5.48466952886E-02  5.53979137402E-02  5.59546720295E-02
  5.65170258325E-02  5.70850313852E-02  5.76587454886E-02  5.82382255147E-02
  5.88235294118E-02  5.94147157108E-02  6.00118435310E-02  6.06149725855E-02
  6.12241631878E-02  6.18394762574E-02  6.24609733262E-02  6.30887165444E-02
  6.37227686868E-02  6.43631931591E-02  6.50100540044E-02  6.56634159093E-02
  6.63233442106E-02  6.69899049014E-02  6.76631646387E-02  6.83431907487E-02
  6.90300512348E-02  6.97238147836E-02  7.04245507719E-02  7.11323292740E-02
  7.18472210682E-02  7.25692976445E-02  7.32986312110E-02  7.40352947017E-02
  7.47793617836E-02  7.55309068640E-02  7.62900050980E-02  7.70567323961E-02
  7.78311654316E-02  7.86133816486E-02  7.94034592692E-02  8.02014773019E-02
  8.10075155492E-02  8.18216546155E-02  8.26439759155E-02  8.34745616820E-02
  8.43134949741E-02  8.51608596861E-02  8.60167405550E-02  8.68812231696E-02
  8.77543939789E-02  8.86363403008E-02  8.95271503305E-02  9.04269131499E-02
  9.13357187360E-02  9.22536579700E-02  9.31808226467E-02  9.41173054834E-02
  9.50632001290E-02  9.60186011738E-02  9.69836041588E-02  9.79583055851E-02
  9.89428029235E-02  9.99371946246E-02  1.00941580129E-01  1.01956059875E-01
  1.02980735312E-01  1.04015708908E-01  1.05061084162E-01  1.06116965612E-01
  1.07183458847E-01  1.08260670517E-01  1.09348708344E-01  1.10447681133E-01
  1.11557698783E-01  1.12678872295E-01  1.13811313788E-01  1.14955136508E-01
  1.16110454837E-01  1.17277384308E-01  1.18456041616E-01  1.19646544626E-01
  1.20849012391E-01  1.22063565157E-01  1.23290324382E-01  1.24529412742E-01
  1.25780954147E-01  1.27045073752E-01  1.28321897970E-01  1.29611554486E-01
  1.30914172264E-01  1.32229881569E-01  1.33558813972E-01  1.34901102368E-01
  1.36256880987E-01  1.37626285407E-01  1.39009452571E-01  1.40406520796E-01
  1.41817629789E-01  1.43242920664E-01  1.44682535950E-01  1.46136619611E-01
  1.47605317055E-01  1.49088775154E-01  1.50587142255E-01  1.52100568195E-01
  1.53629204319E-01  1.55173203491E-01  1.56732720113E-01  1.58307910138E-01
  1.59898931086E-01  1.61505942060E-01  1.63129103763E-01  1.64768578512E-01
  1.66424530256E-01  1.68097124592E-01  1.69786528780E-01  1.71492911763E-01
  1.73216444180E-01  1.74957298386E-01  1.76715648467E-01  1.78491670261E-01
  1.80285541370E-01  1.82097441184E-01  1.83927550893E-01  1.85776053511E-01
  1.87643133889E-01  1.89528978737E-01  1.91433776641E-01  1.93357718081E-01
  1.95300995455E-01  1.97263803091E-01  1.99246337272E-01  2.01248796252E-01
  2.03271380280E-01  2.05314291615E-01  2.07377734551E-01  2.09461915433E-01
  2.11567042681E-01  2.13693326809E-01  2.15840980448E-01  2.18010218365E-01
  2.20201257486E-01  2.22414316916E-01  2.24649617963E-01  2.26907384159E-01
  2.29187841282E-01  2.31491217381E-01  2.33817742794E-01  2.36167650176E-01
  2.38541174520E-01  2.40938553181E-01  2.43360025897E-01  2.45805834819E-01
  2.48276224529E-01  2.50771442069E-01  2.53291736961E-01  2.55837361239E-01
  2.58408569466E-01  2.61005618765E-01  2.63628768843E-01  2.66278282018E-01
  2.68954423244E-01  2.71657460135E-01  2.74387662999E-01  2.77145304858E-01
  2.79930661479E-01  2.82744011399E-01  2.85585635955E-01  2.88455819313E-01
  2.91354848494E-01  2.94283013402E-01  2.97240606857E-01  3.00227924620E-01
  3.03245265426E-01  3.06292931011E-01  3.09371226144E-01  3.12480458658E-01
  3.15620939478E-01  3.18792982655E-01  3.21996905396E-01  3.25233028096E-01
  3.28501674369E-01  3.31803171084E-01  3.35137848392E-01  3.38506039765E-01
  3.41908082024E-01  3.45344315375E-01  3.48815083447E-01  3.52320733317E-01
  3.55861615554E-01  3.59438084249E-01  3.63050497052E-01  3.66699215207E-01
  3.70384603590E-01  3.74107030741E-01  3.77866868908E-01  3.81664494076E-01
  3.85500286011E-01  3.89374628297E-01  3.93287908369E-01  3.97240517561E-01
  4.01232851135E-01  4.05265308328E-01  4.09338292390E-01  4.13452210623E-01
  4.17607474421E-01  4.21804499315E-01  4.26043705009E-01  4.30325515430E-01
  4.34650358761E-01  4.39018667489E-01  4.43430878451E-01  4.47887432869E-01
  4.52388776405E-01  4.56935359195E-01  4.61527635901E-01  4.66166065756E-01
  4.70851112606E-01  4.75583244959E-01  4.80362936033E-01  4.85190663802E-01
  4.90066911040E-01  4.94992165379E-01  4.99966919346E-01  5.04991670422E-01
  5.10066921086E-01  5.15193178867E-01  5.20370956395E-01  5.25600771453E-01
  5.30883147026E-01  5.36218611355E-01  5.41607697993E-01  5.47050945852E-01
  5.52548899261E-01  5.58102108021E-01  5.63711127457E-01  5.69376518475E-01
  5.75098847619E-01  5.80878687128E-01  5.86716614989E-01  5.92613215001E-01
  5.98569076828E-01  6.04584796061E-01  6.10660974278E-01  6.16798219102E-01
  6.22997144261E-01  6.29258369654E-01  6.35582521408E-01  6.41970231944E-01
  6.48422140038E-01  6.54938890886E-01  6.61521136170E-01  6.68169534118E-01
  6.74884749576E-01  6.81667454072E-01  6.88518325881E-01  6.95438050097E-01
  7.02427318697E-01  7.09486830614E-01  7.16617291806E-01  7.23819415324E-01
  7.31093921387E-01  7.38441537451E-01  7.45862998284E-01  7.53359046039E-01
  7.60930430326E-01  7.68577908290E-01  7.76302244686E-01  7.84104211953E-01
  7.91984590294E-01  7.99944167755E-01  8.07983740299E-01  8.16104111890E-01
  8.24306094573E-01  8.32590508552E-01  8.40958182275E-01  8.49409952518E-01
  8.57946664464E-01  8.66569171791E-01  8.75278336757E-01  8.84075030287E-01
  8.92960132056E-01  9.01934530583E-01  9.10999123314E-01  9.20154816717E-01
  9.29402526368E-01  9.38743177047E-01  9.48177702825E-01  9.57707047164E-01
  9.67332163006E-01  9.77054012870E-01  9.86873568949E-01  9.96791813208E-01
  1.00680973748E+00  1.01692834356E+00  1.02714864333E+00  1.03747165881E+00
  1.04789842233E+00  1.05842997656E+00  1.06906737467E+00  1.07981168041E+00
  1.09066396822E+00  1.10162532333E+00  1.11269684190E+00  1.12387963107E+00
  1.13517480915E+00  1.14658350565E+00  1.15810686146E+00  1.16974602892E+00
  1.18150217195E+00  1.19337646619E+00  1.20537009907E+00  1.21748426996E+00
  1.22972019030E+00  1.24207908368E+00  1.25456218600E+00  1.26717074559E+00
  1.27990602331E+00  1.29276929269E+00  1.30576184008E+00  1.31888496475E+00
  1.33213997901E+00  1.34552820838E+00  1.35905099169E+00  1.37270968123E+00
  1.38650564289E+00  1.40044025626E+00  1.41451491483E+00  1.42873102606E+00
  1.44309001159E+00  1.45759330733E+00  1.47224236361E+00  1.48703864535E+00
  1.50198363220E+00  1.51707881866E+00  1.53232571427E+00  1.54772584372E+00
  1.56328074705E+00  1.57899197976E+00  1.59486111298E+00  1.61088973364E+00
  1.62707944462E+00  1.64343186490E+00  1.65994862973E+00  1.67663139081E+00
  1.69348181643E+00  1.71050159164E+00  1.72769241843E+00  1.74505601590E+00
  1.76259412044E+00  1.78030848585E+00  1.79820088359E+00  1.81627310292E+00
  1.83452695108E+00  1.85296425346E+00  1.87158685380E+00  1.89039661440E+00
  1.90939541623E+00  1.92858515919E+00  1.94796776228E+00  1.96754516376E+00
  1.98731932140E+00  2.00729221263E+00  2.02746583476E+00  2.04784220515E+00
  2.06842336148E+00  2.08921136186E+00  2.11020828512E+00  2.13141623097E+00
  2.15283732022E+00  2.17447369499E+00  2.19632751894E+00  2.21840097748E+00
  2.24069627796E+00  2.26321564994E+00  2.28596134537E+00  2.30893563884E+00
  2.33214082780E+00  2.35557923278E+00  2.37925319765E+00  2.40316508982E+00
  2.42731730051E+00  2.45171224494E+00  2.47635236265E+00  2.50124011765E+00
  2.52637799875E+00  2.55176851976E+00  2.57741421974E+00  2.60331766329E+00
  2.62948144078E+00  2.65590816861E+00  2.68260048946E+00  2.70956107260E+00
  2.73679261411E+00  2.76429783715E+00  2.79207949229E+00  2.82014035770E+00
  2.84848323949E+00  2.87711097198E+00  2.90602641797E+00  2.93523246902E+00
  2.96473204577E+00  2.99452809819E+00  3.02462360591E+00  3.05502157852E+00
  3.08572505583E+00  3.11673710822E+00  3.14806083691E+00  3.17969937431E+00
  3.21165588430E+00  3.24393356256E+00  3.27653563687E+00  3.30946536748E+00
  3.34272604738E+00  3.37632100267E+00  3.41025359288E+00  3.44452721129E+00
  3.47914528529E+00  3.51411127671E+00  3.54942868220E+00  3.58510103351E+00
  3.62113189791E+00  3.65752487852E+00  3.69428361466E+00  3.73141178224E+00
  3.76891309411E+00  3.80679130044E+00  3.84505018906E+00  3.88369358591E+00
  3.92272535535E+00  3.96214940060E+00  4.00196966408E+00  4.04219012787E+00
  4.08281481404E+00  4.12384778510E+00  4.16529314437E+00  4.20715503642E+00
  4.24943764749E+00  4.29214520586E+00  4.33528198233E+00  4.37885229061E+00
  4.42286048777E+00  4.46731097466E+00  4.51220819637E+00  4.55755664266E+00
  4.60336084842E+00  4.64962539409E+00  4.69635490618E+00  4.74355405768E+00
  4.79122756853E+00  4.83938020613E+00  4.88801678578E+00  4.93714217119E+00
  4.98676127493E+00  5.03687905895E+00  5.08750053508E+00  5.13863076550E+00
  5.19027486327E+00  5.24243799286E+00  5.29512537062E+00  5.34834226533E+00
  5.40209399872E+00  5.45638594601E+00  5.51122353644E+00  5.56661225382E+00
  5.62255763706E+00  5.67906528076E+00  5.73614083571E+00  5.79379000953E+00
  5.85201856717E+00  5.91083233155E+00  5.97023718409E+00  6.03023906532E+00
  6.09084397549E+00  6.15205797512E+00  6.21388718569E+00  6.27633779014E+00
  6.33941603361E+00  6.40312822397E+00  6.46748073248E+00  6.53247999445E+00
  6.59813250987E+00  6.66444484404E+00  6.73142362824E+00  6.79907556042E+00
  6.86740740582E+00  6.93642599769E+00  7.00613823793E+00  7.07655109784E+00
  7.14767161875E+00  7.21950691278E+00  7.29206416352E+00  7.36535062675E+00
  7.43937363118E+00  7.51414057918E+00  7.58965894749E+00  7.66593628803E+00
  7.74298022858E+00  7.82079847360E+00  7.89939880500E+00  7.97878908285E+00
  8.05897724626E+00  8.13997131412E+00  8.22177938588E+00  8.30440964244E+00
  8.38787034688E+00  8.47216984535E+00  8.55731656786E+00  8.64331902916E+00
  8.73018582956E+00  8.81792565583E+00  8.90654728200E+00  8.99605957033E+00
  9.08647147211E+00  9.17779202861E+00  9.27003037196E+00  9.36319572608E+00
  9.45729740757E+00  9.55234482668E+00  9.64834748823E+00  9.74531499257E+00
  9.84325703654E+00  9.94218341441E+00  1.00421040189E+01  1.01430288422E+01
  1.02449679768E+01  1.03479316167E+01  1.04519300584E+01  1.05569737019E+01
  1.06630730515E+01  1.07702387173E+01  1.08784814159E+01  1.09878119718E+01
  1.10982413180E+01  1.12097804976E+01  1.13224406645E+01  1.14362330850E+01
  1.15511691383E+01  1.16672603182E+01  1.17845182338E+01  1.19029546111E+01
  1.20225812937E+01  1.21434102445E+01  1.22654535464E+01  1.23887234039E+01
  1.25132321441E+01  1.26389922179E+01  1.27660162015E+01  1.28943167973E+01
  1.30239068355E+01  1.31547992753E+01  1.32870072060E+01  1.34205438485E+01
  1.35554225565E+01  1.36916568181E+01  1.38292602568E+01  1.39682466330E+01
  1.41086298455E+01  1.42504239328E+01  1.43936430744E+01  1.45383015922E+01
  1.46844139523E+01  1.48319947661E+01  1.49810587917E+01  1.51316209356E+01
  1.52836962543E+01  1.54372999553E+01  1.55924473992E+01  1.57491541008E+01
  1.59074357310E+01  1.60673081179E+01  1.62287872491E+01  1.63918892725E+01
  1.65566304985E+01  1.67230274014E+01  1.68910966209E+01  1.70608549642E+01
  1.72323194072E+01  1.74055070965E+01  1.75804353510E+01  1.77571216637E+01
  1.79355837033E+01  1.81158393163E+01  1.82979065283E+01  1.84818035462E+01
  1.86675487599E+01  1.88551607440E+01  1.90446582598E+01  1.92360602574E+01
  1.94293858770E+01  1.96246544514E+01  1.98218855077E+01  2.00210987689E+01
  2.02223141568E+01  2.04255517929E+01  2.06308320012E+01  2.08381753099E+01
  2.10476024535E+01  2.12591343748E+01  2.14727922274E+01  2.16885973770E+01
  2.19065714045E+01  2.21267361073E+01  2.23491135022E+01  2.25737258271E+01
  2.28005955434E+01  2.30297453382E+01  2.32611981268E+01  2.34949770545E+01
  2.37311054996E+01  2.39696070749E+01  2.42105056310E+01  2.44538252578E+01
  2.46995902875E+01  2.49478252968E+01  2.51985551094E+01  2.54518047985E+01
  2.57075996893E+01  2.59659653615E+01  2.62269276519E+01  2.64905126569E+01
  2.67567467353E+01  2.70256565106E+01  2.72972688741E+01  2.75716109872E+01
  2.78487102844E+01  2.81285944758E+01  2.84112915502E+01  2.86968297773E+01
  2.89852377114E+01  2.92765441933E+01  2.95707783541E+01  2.98679696174E+01
  3.01681477025E+01  3.04713426275E+01  3.07775847122E+01  3.10869045810E+01
  3.13993331662E+01  3.17149017109E+01  3.20336417721E+01  3.23555852242E+01
  3.26807642618E+01  3.30092114031E+01  3.33409594930E+01  3.36760417067E+01
  3.40144915526E+01  3.43563428760E+01  3.47016298623E+01  3.50503870405E+01
  3.54026492866E+01  3.57584518271E+01  3.61178302427E+01  3.64808204713E+01
  3.68474588124E+01  3.72177819301E+01  3.75918268570E+01  3.79696309979E+01
  3.83512321336E+01  3.87366684244E+01  3.91259784144E+01  3.95192010348E+01
  3.99163756082E+01  4.03175418525E+01  4.07227398845E+01  4.11320102245E+01
  4.15453937997E+01  4.19629319490E+01  4.23846664264E+01  4.28106394058E+01
  4.32408934848E+01  4.36754716892E+01  4.41144174772E+01  4.45577747436E+01
  4.50055878247E+01  4.54579015021E+01  4.59147610075E+01  4.63762120272E+01
  4.68423007068E+01  4.73130736555E+01  4.77885779510E+01  4.82688611442E+01
  4.87539712636E+01  4.92439568208E+01  4.97388668148E+01  5.02387507368E+01
  5.07436585758E+01  5.12536408230E+01  5.17687484769E+01  5.22890330489E+01
  5.28145465677E+01  5.33453415852E+01  5.38814711812E+01  5.44229889694E+01
  5.49699491017E+01  5.55224062748E+01  5.60804157348E+01  5.66440332831E+01