<PP_INFO>
Generated using Vanderbilt code, version   7  3  2                              
Author: Yi Yao     Generation date:    0    0    0                              
Automatically converted from original format                                    
    2        The Pseudo was generated with a Full-Relativistic Calculation
nl pn  l   occ               Rcut            Rcut US             E pseu
0S  0  0  2.00      0.00000000000      0.00000000000      0.00000000000
0P  0  1  2.00      0.00000000000      0.00000000000      0.00000000000
0D  0  2  0.00      0.00000000000      0.00000000000      0.00000000000
</PP_INFO>


<PP_HEADER>
   0                   Version Number
  Ge                   Element
   NC                  Norm - Conserving pseudopotential
    F                  Nonlinear Core Correction
 SLA  PW  SCAN SCAN    SCAN Exchange-Correlation functional
    4.00000000000      Z valence
    0.00000000000      Total energy
    0.00000    0.00000 Suggested cutoff for wfc and rho
    1                  Max angular momentum component
 1557                  Number of points in mesh
    3    2             Number of Wavefunctions, Number of Projectors
 Wavefunctions         nl  l   occ
                       0S  0  2.00
                       0P  1  2.00
                       0D  2  0.00
</PP_HEADER>


<PP_MESH>
  <PP_R>
  1.04832071220E-05  1.05885651051E-05  1.06949819536E-05  1.08024683092E-05
  1.09110349206E-05  1.10206926446E-05  1.11314524471E-05  1.12433254041E-05
  1.13563227030E-05  1.14704556436E-05  1.15857356393E-05  1.17021742183E-05
  1.18197830245E-05  1.19385738188E-05  1.20585584804E-05  1.21797490079E-05
  1.23021575205E-05  1.24257962590E-05  1.25506775876E-05  1.26768139944E-05
  1.28042180931E-05  1.29329026243E-05  1.30628804566E-05  1.31941645878E-05
  1.33267681464E-05  1.34607043930E-05  1.35959867212E-05  1.37326286594E-05
  1.38706438720E-05  1.40100461604E-05  1.41508494652E-05  1.42930678667E-05
  1.44367155869E-05  1.45818069907E-05  1.47283565874E-05  1.48763790319E-05
  1.50258891268E-05  1.51769018231E-05  1.53294322223E-05  1.54834955774E-05
  1.56391072950E-05  1.57962829364E-05  1.59550382192E-05  1.61153890191E-05
  1.62773513714E-05  1.64409414724E-05  1.66061756812E-05  1.67730705214E-05
  1.69416426827E-05  1.71119090223E-05  1.72838865671E-05  1.74575925150E-05
  1.76330442366E-05  1.78102592774E-05  1.79892553590E-05  1.81700503811E-05
  1.83526624233E-05  1.85371097471E-05  1.87234107973E-05  1.89115842042E-05
  1.91016487853E-05  1.92936235472E-05  1.94875276875E-05  1.96833805968E-05
  1.98812018606E-05  2.00810112611E-05  2.02828287795E-05  2.04866745977E-05
  2.06925691004E-05  2.09005328772E-05  2.11105867248E-05  2.13227516486E-05
  2.15370488654E-05  2.17534998050E-05  2.19721261127E-05  2.21929496513E-05
  2.24159925034E-05  2.26412769734E-05  2.28688255900E-05  2.30986611082E-05
  2.33308065118E-05  2.35652850154E-05  2.38021200672E-05  2.40413353508E-05
  2.42829547880E-05  2.45270025410E-05  2.47735030146E-05  2.50224808591E-05
  2.52739609726E-05  2.55279685033E-05  2.57845288521E-05  2.60436676752E-05
  2.63054108868E-05  2.65697846615E-05  2.68368154367E-05  2.71065299158E-05
  2.73789550706E-05  2.76541181436E-05  2.79320466515E-05  2.82127683874E-05
  2.84963114236E-05  2.87827041147E-05  2.90719751002E-05  2.93641533074E-05
  2.96592679544E-05  2.99573485529E-05  3.02584249113E-05  3.05625271374E-05
  3.08696856416E-05  3.11799311401E-05  3.14932946578E-05  3.18098075311E-05
  3.21295014117E-05  3.24524082692E-05  3.27785603946E-05  3.31079904034E-05
  3.34407312387E-05  3.37768161751E-05  3.41162788212E-05  3.44591531237E-05
  3.48054733702E-05  3.51552741930E-05  3.55085905725E-05  3.58654578407E-05
  3.62259116845E-05  3.65899881497E-05  3.69577236442E-05  3.73291549419E-05
  3.77043191862E-05  3.80832538938E-05  3.84659969585E-05  3.88525866550E-05
  3.92430616426E-05  3.96374609690E-05  4.00358240745E-05  4.04381907958E-05
  4.08446013699E-05  4.12550964381E-05  4.16697170504E-05  4.20885046691E-05
  4.25115011734E-05  4.29387488632E-05  4.33702904636E-05  4.38061691293E-05
  4.42464284483E-05  4.46911124471E-05  4.51402655944E-05  4.55939328058E-05
  4.60521594486E-05  4.65149913456E-05  4.69824747805E-05  4.74546565021E-05
  4.79315837289E-05  4.84133041540E-05  4.88998659498E-05  4.93913177730E-05
  4.98877087691E-05  5.03890885777E-05  5.08955073371E-05  5.14070156897E-05
  5.19236647867E-05  5.24455062934E-05  5.29725923945E-05  5.35049757989E-05
  5.40427097455E-05  5.45858480082E-05  5.51344449011E-05  5.56885552844E-05
  5.62482345697E-05  5.68135387253E-05  5.73845242822E-05  5.79612483392E-05
  5.85437685695E-05  5.91321432253E-05  5.97264311448E-05  6.03266917571E-05
  6.09329850889E-05  6.15453717700E-05  6.21639130395E-05  6.27886707522E-05
  6.34197073842E-05  6.40570860399E-05  6.47008704575E-05  6.53511250161E-05
  6.60079147416E-05  6.66713053137E-05  6.73413630718E-05  6.80181550223E-05
  6.87017488451E-05  6.93922128999E-05  7.00896162339E-05  7.07940285879E-05
  7.15055204038E-05  7.22241628313E-05  7.29500277353E-05  7.36831877028E-05
  7.44237160505E-05  7.51716868319E-05  7.59271748445E-05  7.66902556379E-05
  7.74610055208E-05  7.82395015688E-05  7.90258216322E-05  7.98200443435E-05
  8.06222491258E-05  8.14325162003E-05  8.22509265942E-05  8.30775621493E-05
  8.39125055298E-05  8.47558402308E-05  8.56076505865E-05  8.64680217786E-05
  8.73370398449E-05  8.82147916880E-05  8.91013650837E-05  8.99968486903E-05
  9.09013320566E-05  9.18149056320E-05  9.27376607744E-05  9.36696897602E-05
  9.46110857930E-05  9.55619430132E-05  9.65223565074E-05  9.74924223177E-05
  9.84722374514E-05  9.94618998909E-05  1.00461508603E-04  1.01471163550E-04
  1.02490965698E-04  1.03521017028E-04  1.04561420546E-04  1.05612280293E-04
  1.06673701356E-04  1.07745789878E-04  1.08828653069E-04  1.09922399216E-04
  1.11027137694E-04  1.12142978979E-04  1.13270034655E-04  1.14408417429E-04
  1.15558241140E-04  1.16719620772E-04  1.17892672462E-04  1.19077513519E-04
  1.20274262425E-04  1.21483038859E-04  1.22703963697E-04  1.23937159034E-04
  1.25182748190E-04  1.26440855726E-04  1.27711607452E-04  1.28995130445E-04
  1.30291553060E-04  1.31601004937E-04  1.32923617025E-04  1.34259521586E-04
  1.35608852211E-04  1.36971743833E-04  1.38348332745E-04  1.39738756605E-04
  1.41143154457E-04  1.42561666742E-04  1.43994435312E-04  1.45441603446E-04
  1.46903315862E-04  1.48379718732E-04  1.49870959697E-04  1.51377187883E-04
  1.52898553914E-04  1.54435209927E-04  1.55987309591E-04  1.57555008115E-04
  1.59138462272E-04  1.60737830407E-04  1.62353272460E-04  1.63984949974E-04
  1.65633026121E-04  1.67297665708E-04  1.68979035201E-04  1.70677302739E-04
  1.72392638149E-04  1.74125212966E-04  1.75875200450E-04  1.77642775601E-04
  1.79428115177E-04  1.81231397714E-04  1.83052803542E-04  1.84892514803E-04
  1.86750715469E-04  1.88627591362E-04  1.90523330172E-04  1.92438121474E-04
  1.94372156748E-04  1.96325629400E-04  1.98298734778E-04  2.00291670196E-04
  2.02304634947E-04  2.04337830330E-04  2.06391459666E-04  2.08465728320E-04
  2.10560843721E-04  2.12677015382E-04  2.14814454922E-04  2.16973376086E-04
  2.19153994768E-04  2.21356529033E-04  2.23581199135E-04  2.25828227543E-04
  2.28097838962E-04  2.30390260355E-04  2.32705720966E-04  2.35044452344E-04
  2.37406688362E-04  2.39792665247E-04  2.42202621598E-04  2.44636798413E-04
  2.47095439112E-04  2.49578789561E-04  2.52087098097E-04  2.54620615552E-04
  2.57179595282E-04  2.59764293185E-04  2.62374967734E-04  2.65011879999E-04
  2.67675293672E-04  2.70365475098E-04  2.73082693296E-04  2.75827219991E-04
  2.78599329639E-04  2.81399299451E-04  2.84227409428E-04  2.87083942383E-04
  2.89969183971E-04  2.92883422719E-04  2.95826950053E-04  2.98800060329E-04
  3.01803050861E-04  3.04836221948E-04  3.07899876912E-04  3.10994322120E-04
  3.14119867020E-04  3.17276824168E-04  3.20465509263E-04  3.23686241175E-04
  3.26939341982E-04  3.30225136995E-04  3.33543954798E-04  3.36896127273E-04
  3.40281989642E-04  3.43701880494E-04  3.47156141820E-04  3.50645119050E-04
  3.54169161083E-04  3.57728620328E-04  3.61323852733E-04  3.64955217825E-04
  3.68623078742E-04  3.72327802275E-04  3.76069758898E-04  3.79849322810E-04
  3.83666871971E-04  3.87522788139E-04  3.91417456909E-04  3.95351267750E-04
  3.99324614048E-04  4.03337893140E-04  4.07391506357E-04  4.11485859065E-04
  4.15621360701E-04  4.19798424820E-04  4.24017469131E-04  4.28278915543E-04
  4.32583190202E-04  4.36930723542E-04  4.41321950318E-04  4.45757309656E-04
  4.50237245097E-04  4.54762204638E-04  4.59332640778E-04  4.63949010565E-04
  4.68611775640E-04  4.73321402283E-04  4.78078361460E-04  4.82883128872E-04
  4.87736184999E-04  4.92638015152E-04  4.97589109516E-04  5.02589963206E-04
  5.07641076311E-04  5.12742953947E-04  5.17896106305E-04  5.23101048706E-04
  5.28358301647E-04  5.33668390859E-04  5.39031847355E-04  5.44449207484E-04
  5.49921012988E-04  5.55447811052E-04  5.61030154359E-04  5.66668601150E-04
  5.72363715273E-04  5.78116066244E-04  5.83926229304E-04  5.89794785473E-04
  5.95722321613E-04  6.01709430481E-04  6.07756710793E-04  6.13864767283E-04
  6.20034210762E-04  6.26265658178E-04  6.32559732681E-04  6.38917063686E-04
  6.45338286929E-04  6.51824044538E-04  6.58374985095E-04  6.64991763699E-04
  6.71675042034E-04  6.78425488433E-04  6.85243777946E-04  6.92130592407E-04
  6.99086620505E-04  7.06112557848E-04  7.13209107034E-04  7.20376977726E-04
  7.27616886716E-04  7.34929558000E-04  7.42315722853E-04  7.49776119897E-04
  7.57311495178E-04  7.64922602239E-04  7.72610202198E-04  7.80375063821E-04
  7.88217963601E-04  7.96139685834E-04  8.04141022699E-04  8.12222774336E-04
  8.20385748928E-04  8.28630762778E-04  8.36958640395E-04  8.45370214573E-04
  8.53866326478E-04  8.62447825727E-04  8.71115570476E-04  8.79870427509E-04
  8.88713272318E-04  8.97644989195E-04  9.06666471319E-04  9.15778620845E-04
  9.24982348997E-04  9.34278576154E-04  9.43668231947E-04  9.53152255351E-04
  9.62731594773E-04  9.72407208158E-04  9.82180063074E-04  9.92051136815E-04
  1.00202141650E-03  1.01209189915E-03  1.02226359184E-03  1.03253751175E-03
  1.04291468626E-03  1.05339615311E-03  1.06398296046E-03  1.07467616698E-03
  1.08547684202E-03  1.09638606565E-03  1.10740492880E-03  1.11853453336E-03
  1.12977599231E-03  1.14113042980E-03  1.15259898129E-03  1.16418279363E-03
  1.17588302522E-03  1.18770084610E-03  1.19963743805E-03  1.21169399474E-03
  1.22387172184E-03  1.23617183714E-03  1.24859557065E-03  1.26114416475E-03
  1.27381887432E-03  1.28662096685E-03  1.29955172254E-03  1.31261243448E-03
  1.32580440877E-03  1.33912896460E-03  1.35258743444E-03  1.36618116415E-03
  1.37991151312E-03  1.39377985438E-03  1.40778757480E-03  1.42193607514E-03
  1.43622677028E-03  1.45066108929E-03  1.46524047562E-03  1.47996638722E-03
  1.49484029669E-03  1.50986369144E-03  1.52503807381E-03  1.54036496126E-03
  1.55584588650E-03  1.57148239761E-03  1.58727605828E-03  1.60322844787E-03
  1.61934116165E-03  1.63561581089E-03  1.65205402307E-03  1.66865744204E-03
  1.68542772814E-03  1.70236655841E-03  1.71947562676E-03  1.73675664411E-03
  1.75421133857E-03  1.77184145562E-03  1.78964875830E-03  1.80763502734E-03
  1.82580206139E-03  1.84415167717E-03  1.86268570965E-03  1.88140601226E-03
  1.90031445704E-03  1.91941293484E-03  1.93870335554E-03  1.95818764819E-03
  1.97786776124E-03  1.99774566271E-03  2.01782334041E-03  2.03810280213E-03
  2.05858607583E-03  2.07927520984E-03  2.10017227312E-03  2.12127935537E-03
  2.14259856732E-03  2.16413204092E-03  2.18588192952E-03  2.20785040814E-03
  2.23003967364E-03  2.25245194496E-03  2.27508946336E-03  2.29795449260E-03
  2.32104931920E-03  2.34437625267E-03  2.36793762571E-03  2.39173579450E-03
  2.41577313885E-03  2.44005206254E-03  2.46457499346E-03  2.48934438393E-03
  2.51436271092E-03  2.53963247628E-03  2.56515620700E-03  2.59093645547E-03
  2.61697579976E-03  2.64327684380E-03  2.66984221773E-03  2.69667457811E-03
  2.72377660819E-03  2.75115101820E-03  2.77880054561E-03  2.80672795538E-03
  2.83493604029E-03  2.86342762117E-03  2.89220554720E-03  2.92127269619E-03
  2.95063197488E-03  2.98028631924E-03  3.01023869470E-03  3.04049209655E-03
  3.07104955014E-03  3.10191411124E-03  3.13308886634E-03  3.16457693293E-03
  3.19638145986E-03  3.22850562760E-03  3.26095264859E-03  3.29372576756E-03
  3.32682826185E-03  3.36026344174E-03  3.39403465078E-03  3.42814526611E-03
  3.46259869882E-03  3.49739839429E-03  3.53254783251E-03  3.56805052846E-03
  3.60391003244E-03  3.64012993042E-03  3.67671384443E-03  3.71366543289E-03
  3.75098839098E-03  3.78868645104E-03  3.82676338291E-03  3.86522299430E-03
  3.90406913121E-03  3.94330567828E-03  3.98293655921E-03  4.02296573712E-03
  4.06339721495E-03  4.10423503589E-03  4.14548328375E-03  4.18714608340E-03
  4.22922760114E-03  4.27173204517E-03  4.31466366597E-03  4.35802675672E-03
  4.40182565378E-03  4.44606473708E-03  4.49074843055E-03  4.53588120261E-03
  4.58146756657E-03  4.62751208111E-03  4.67401935071E-03  4.72099402614E-03
  4.76844080490E-03  4.81636443172E-03  4.86476969900E-03  4.91366144730E-03
  4.96304456584E-03  5.01292399297E-03  5.06330471668E-03  5.11419177508E-03
  5.16559025692E-03  5.21750530210E-03  5.26994210214E-03  5.32290590079E-03
  5.37640199447E-03  5.43043573283E-03  5.48501251928E-03  5.54013781156E-03
  5.59581712223E-03  5.65205601929E-03  5.70886012665E-03  5.76623512478E-03
  5.82418675123E-03  5.88272080121E-03  5.94184312817E-03  6.00155964440E-03
  6.06187632159E-03  6.12279919147E-03  6.18433434636E-03  6.24648793985E-03
  6.30926618733E-03  6.37267536669E-03  6.43672181890E-03  6.50141194866E-03
  6.56675222502E-03  6.63274918209E-03  6.69940941959E-03  6.76673960363E-03
  6.83474646726E-03  6.90343681123E-03  6.97281750464E-03  7.04289548561E-03
  7.11367776199E-03  7.18517141209E-03  7.25738358530E-03  7.33032150293E-03
  7.40399245882E-03  7.47840382012E-03  7.55356302803E-03  7.62947759854E-03
  7.70615512318E-03  7.78360326974E-03  7.86182978312E-03  7.94084248603E-03
  8.02064927980E-03  8.10125814518E-03  8.18267714314E-03  8.26491441562E-03
  8.34797818643E-03  8.43187676202E-03  8.51661853231E-03  8.60221197155E-03
  8.68866563916E-03  8.77598818057E-03  8.86418832812E-03  8.95327490188E-03
  9.04325681060E-03  9.13414305253E-03  9.22594271638E-03  9.31866498218E-03
  9.41231912226E-03  9.50691450208E-03  9.60246058129E-03  9.69896691455E-03
  9.79644315258E-03  9.89489904310E-03  9.99434443176E-03  1.00947892632E-02
  1.01962435820E-02  1.02987175336E-02  1.04022213656E-02  1.05067654283E-02
  1.06123601764E-02  1.07190161693E-02  1.08267440728E-02  1.09355546597E-02
  1.10454588112E-02  1.11564675178E-02  1.12685918804E-02  1.13818431116E-02
  1.14962325366E-02  1.16117715944E-02  1.17284718391E-02  1.18463449407E-02
  1.19654026867E-02  1.20856569830E-02  1.22071198550E-02  1.23298034491E-02
  1.24537200339E-02  1.25788820011E-02  1.27053018669E-02  1.28329922735E-02
  1.29619659900E-02  1.30922359140E-02  1.32238150724E-02  1.33567166234E-02
  1.34909538572E-02  1.36265401975E-02  1.37634892033E-02  1.39018145695E-02
  1.40415301287E-02  1.41826498526E-02  1.43251878533E-02  1.44691583847E-02
  1.46145758441E-02  1.47614547732E-02  1.49098098600E-02  1.50596559403E-02
  1.52110079987E-02  1.53638811707E-02  1.55182907435E-02  1.56742521583E-02
  1.58317810114E-02  1.59908930558E-02  1.61516042029E-02  1.63139305238E-02
  1.64778882513E-02  1.66434937815E-02  1.68107636748E-02  1.69797146586E-02
  1.71503636279E-02  1.73227276480E-02  1.74968239552E-02  1.76726699594E-02
  1.78502832453E-02  1.80296815744E-02  1.82108828867E-02  1.83939053024E-02
  1.85787671241E-02  1.87654868379E-02  1.89540831160E-02  1.91445748183E-02
  1.93369809939E-02  1.95313208838E-02  1.97276139221E-02  1.99258797382E-02
  2.01261381588E-02  2.03284092101E-02  2.05327131192E-02  2.07390703168E-02
  2.09475014386E-02  2.11580273281E-02  2.13706690379E-02  2.15854478324E-02
  2.18023851897E-02  2.20215028037E-02  2.22428225863E-02  2.24663666697E-02
  2.26921574086E-02  2.29202173820E-02  2.31505693963E-02  2.33832364868E-02
  2.36182419205E-02  2.38556091980E-02  2.40953620564E-02  2.43375244710E-02
  2.45821206583E-02  2.48291750782E-02  2.50787124363E-02  2.53307576866E-02
  2.55853360337E-02  2.58424729357E-02  2.61021941066E-02  2.63645255186E-02
  2.66294934052E-02  2.68971242633E-02  2.71674448562E-02  2.74404822163E-02
  2.77162636474E-02  2.79948167280E-02  2.82761693136E-02  2.85603495397E-02
  2.88473858246E-02  2.91373068721E-02  2.94301416745E-02  2.97259195156E-02
  3.00246699735E-02  3.03264229234E-02  3.06312085408E-02  3.09390573047E-02
  3.12500000000E-02  3.15640677214E-02  3.18812918758E-02  3.22017041860E-02
  3.25253366935E-02  3.28522217618E-02  3.31823920795E-02  3.35158806642E-02
  3.38527208648E-02  3.41929463658E-02  3.45365911899E-02  3.48836897018E-02
  3.52342766119E-02  3.55883869789E-02  3.59460562143E-02  3.63073200853E-02
  3.66722147185E-02  3.70407766038E-02  3.74130425976E-02  3.77890499268E-02
  3.81688361925E-02  3.85524393736E-02  3.89398978309E-02  3.93312503103E-02
  3.97265359475E-02  4.01257942715E-02  4.05290652083E-02  4.09363890854E-02
  4.13478066355E-02  4.17633590008E-02  4.21830877368E-02  4.26070348166E-02
  4.30352426355E-02  4.34677540145E-02  4.39046122051E-02  4.43458608935E-02
  4.47915442050E-02  4.52417067082E-02  4.56963934198E-02  4.61556498088E-02
  4.66195218013E-02  4.70880557848E-02  4.75612986131E-02  4.80392976109E-02
  4.85221005785E-02  4.90097557966E-02  4.95023120311E-02  4.99998185380E-02
  5.05023250685E-02  5.10098818736E-02  5.15225397094E-02  5.20403498421E-02
  5.25633640531E-02  5.30916346443E-02  5.36252144433E-02  5.41641568084E-02
  5.47085156343E-02  5.52583453573E-02  5.58137009609E-02  5.63746379812E-02
  5.69412125122E-02  5.75134812119E-02  5.80915013077E-02  5.86753306020E-02
  5.92650274783E-02  5.98606509067E-02  6.04622604501E-02  6.10699162699E-02
  6.16836791322E-02  6.23036104138E-02  6.29297721085E-02  6.35622268327E-02
  6.42010378326E-02  6.48462689898E-02  6.54979848279E-02  6.61562505191E-02
  6.68211318905E-02  6.74926954308E-02  6.81710082968E-02  6.88561383205E-02
  6.95481540154E-02  7.02471245836E-02  7.09531199229E-02  7.16662106333E-02
  7.23864680244E-02  7.31139641227E-02  7.38487716783E-02  7.45909641726E-02
  7.53406158255E-02  7.60978016028E-02  7.68625972237E-02  7.76350791683E-02
  7.84153246855E-02  7.92034118006E-02  7.99994193228E-02  8.08034268536E-02
  8.16155147945E-02  8.24357643548E-02  8.32642575603E-02  8.41010772609E-02
  8.49463071393E-02  8.58000317193E-02  8.66623363739E-02  8.75333073343E-02
  8.84130316985E-02  8.93015974395E-02  9.01990934146E-02  9.11056093743E-02
  9.20212359708E-02  9.29460647676E-02  9.38801882483E-02  9.48236998261E-02
  9.57766938529E-02  9.67392656289E-02  9.77115114121E-02  9.86935284278E-02
  9.96854148786E-02  1.00687269954E-01  1.01699193840E-01  1.02721287731E-01
  1.03753653836E-01  1.04796395392E-01  1.05849616676E-01  1.06913423009E-01
  1.07987920774E-01  1.09073217421E-01  1.10169421480E-01  1.11276642574E-01
  1.12394991424E-01  1.13524579867E-01  1.14665520863E-01  1.15817928507E-01
  1.16981918039E-01  1.18157605862E-01  1.19345109543E-01  1.20544547834E-01
  1.21756040681E-01  1.22979709233E-01  1.24215675859E-01  1.25464064156E-01
  1.26724998964E-01  1.27998606377E-01  1.29285013758E-01  1.30584349748E-01
  1.31896744281E-01  1.33222328599E-01  1.34561235261E-01  1.35913598158E-01
  1.37279552529E-01  1.38659234969E-01  1.40052783448E-01  1.41460337322E-01
  1.42882037348E-01  1.44318025697E-01  1.45768445968E-01  1.47233443206E-01
  1.48713163911E-01  1.50207756055E-01  1.51717369101E-01  1.53242154010E-01
  1.54782263262E-01  1.56337850870E-01  1.57909072393E-01  1.59496084954E-01
  1.61099047257E-01  1.62718119599E-01  1.64353463889E-01  1.66005243662E-01
  1.67673624098E-01  1.69358772035E-01  1.71060855991E-01  1.72780046176E-01
  1.74516514509E-01  1.76270434638E-01  1.78041981958E-01  1.79831333625E-01
  1.81638668575E-01  1.83464167543E-01  1.85308013081E-01  1.87170389574E-01
  1.89051483263E-01  1.90951482257E-01  1.92870576559E-01  1.94808958079E-01
  1.96766820657E-01  1.98744360081E-01  2.00741774107E-01  2.02759262478E-01
  2.04797026943E-01  2.06855271283E-01  2.08934201321E-01  2.11034024954E-01
  2.13154952165E-01  2.15297195049E-01  2.17460967832E-01  2.19646486893E-01
  2.21853970786E-01  2.24083640261E-01  2.26335718286E-01  2.28610430072E-01
  2.30908003092E-01  2.33228667104E-01  2.35572654177E-01  2.37940198712E-01
  2.40331537465E-01  2.42746909572E-01  2.45186556572E-01  2.47650722433E-01
  2.50139653572E-01  2.52653598885E-01  2.55192809768E-01  2.57757540145E-01
  2.60348046490E-01  2.62964587858E-01  2.65607425903E-01  2.68276824912E-01
  2.70973051827E-01  2.73696376273E-01  2.76447070585E-01  2.79225409834E-01
  2.82031671857E-01  2.84866137283E-01  2.87729089559E-01  2.90620814984E-01
  2.93541602733E-01  2.96491744886E-01  2.99471536461E-01  3.02481275440E-01
  3.05521262798E-01  3.08591802537E-01  3.11693201713E-01  3.14825770469E-01
  3.17989822065E-01  3.21185672908E-01  3.24413642585E-01  3.27674053898E-01
  3.30967232889E-01  3.34293508878E-01  3.37653214498E-01  3.41046685720E-01
  3.44474261895E-01  3.47936285783E-01  3.51433103590E-01  3.54965065000E-01
  3.58532523212E-01  3.62135834976E-01  3.65775360624E-01  3.69451464114E-01
  3.73164513058E-01  3.76914878764E-01  3.80702936272E-01  3.84529064391E-01
  3.88393645737E-01  3.92297066771E-01  3.96239717839E-01  4.00221993208E-01
  4.04244291111E-01  4.08307013779E-01  4.12410567489E-01  4.16555362600E-01
  4.20741813594E-01  4.24970339120E-01  4.29241362034E-01  4.33555309442E-01
  4.37912612742E-01  4.42313707668E-01  4.46759034334E-01  4.51249037275E-01
  4.55784165496E-01  4.60364872514E-01  4.64991616402E-01  4.69664859840E-01
  4.74385070155E-01  4.79152719372E-01  4.83968284261E-01  4.88832246381E-01
  4.93745092133E-01  4.98707312806E-01  5.03719404626E-01  5.08781868806E-01
  5.13895211597E-01  5.19059944337E-01  5.24276583504E-01  5.29545650767E-01
  5.34867673036E-01  5.40243182518E-01  5.45672716768E-01  5.51156818745E-01
  5.56696036863E-01  5.62290925048E-01  5.67942042795E-01  5.73649955219E-01
  5.79415233117E-01  5.85238453021E-01  5.91120197258E-01  5.97061054007E-01
  6.03061617359E-01  6.09122487376E-01  6.15244270149E-01  6.21427577861E-01
  6.27673028850E-01  6.33981247664E-01  6.40352865131E-01  6.46788518418E-01
  6.53288851097E-01  6.59854513204E-01  6.66486161313E-01  6.73184458594E-01
  6.79950074881E-01  6.86783686743E-01  6.93685977545E-01  7.00657637523E-01
  7.07699363849E-01  7.14811860701E-01  7.21995839335E-01  7.29252018154E-01
  7.36581122783E-01  7.43983886138E-01  7.51461048502E-01  7.59013357597E-01
  7.66641568660E-01  7.74346444518E-01  7.82128755667E-01  7.89989280343E-01
  7.97928804605E-01  8.05948122412E-01  8.14048035704E-01  8.22229354477E-01
  8.30492896871E-01  8.38839489247E-01  8.47269966271E-01  8.55785170997E-01
  8.64385954954E-01  8.73073178226E-01  8.81847709544E-01  8.90710426368E-01
  8.99662214976E-01  9.08703970556E-01  9.17836597290E-01  9.27061008449E-01
  9.36378126481E-01  9.45788883106E-01  9.55294219408E-01  9.64895085927E-01
  9.74592442760E-01  9.84387259648E-01  9.94280516083E-01  1.00427320140E+00
  1.01436631487E+00  1.02456086582E+00  1.03485787371E+00  1.04525836825E+00
  1.05576338950E+00  1.06637398796E+00  1.07709122471E+00  1.08791617149E+00
  1.09884991078E+00  1.10989353599E+00  1.12104815147E+00  1.13231487270E+00
  1.14369482636E+00  1.15518915046E+00  1.16679899444E+00  1.17852551929E+00
  1.19036989767E+00  1.20233331403E+00  1.21441696473E+00  1.22662205813E+00
  1.23894981477E+00  1.25140146742E+00  1.26397826125E+00  1.27668145397E+00
  1.28951231589E+00  1.30247213013E+00  1.31556219266E+00  1.32878381250E+00
  1.34213831184E+00  1.35562702612E+00  1.36925130424E+00  1.38301250862E+00
  1.39691201542E+00  1.41095121457E+00  1.42513151003E+00  1.43945431982E+00
  1.45392107624E+00  1.46853322599E+00  1.48329223028E+00  1.49819956503E+00
  1.51325672098E+00  1.52846520387E+00  1.54382653455E+00  1.55934224917E+00
  1.57501389931E+00  1.59084305216E+00  1.60683129064E+00  1.62298021359E+00
  1.63929143591E+00  1.65576658874E+00  1.67240731961E+00  1.68921529260E+00
  1.70619218854E+00  1.72333970511E+00  1.74065955709E+00  1.75815347647E+00
  1.77582321267E+00  1.79367053267E+00  1.81169722122E+00  1.82990508100E+00
  1.84829593281E+00  1.86687161575E+00  1.88563398742E+00  1.90458492405E+00
  1.92372632076E+00  1.94306009171E+00  1.96258817029E+00  1.98231250932E+00
  2.00223508125E+00  2.02235787836E+00  2.04268291294E+00  2.06321221751E+00
  2.08394784503E+00  2.10489186907E+00  2.12604638404E+00  2.14741350543E+00
  2.16899536996E+00  2.19079413583E+00  2.21281198295E+00  2.23505111310E+00
  2.25751375023E+00  2.28020214061E+00  2.30311855311E+00  2.32626527939E+00
  2.34964463413E+00  2.37325895529E+00  2.39711060432E+00  2.42120196641E+00
  2.44553545072E+00  2.47011349061E+00  2.49493854391E+00  2.52001309314E+00
  2.54533964578E+00  2.57092073451E+00  2.59675891745E+00  2.62285677845E+00
  2.64921692731E+00  2.67584200007E+00  2.70273465926E+00  2.72989759417E+00
  2.75733352111E+00  2.78504518371E+00  2.81303535314E+00  2.84130682845E+00
  2.86986243682E+00  2.89870503382E+00  2.92783750373E+00  2.95726275984E+00
  2.98698374469E+00  3.01700343040E+00  3.04732481897E+00  3.07795094256E+00
  3.10888486381E+00  3.14012967614E+00  3.17168850405E+00  3.20356450345E+00
  3.23576086198E+00  3.26828079928E+00  3.30112756740E+00  3.33430445101E+00
  3.36781476786E+00  3.40166186898E+00  3.43584913913E+00  3.47037999705E+00
  3.50525789587E+00  3.54048632340E+00  3.57606880250E+00  3.61200889147E+00
  3.64831018434E+00  3.68497631127E+00  3.72201093890E+00  3.75941777073E+00
  3.79720054746E+00  3.83536304741E+00  3.87390908687E+00  3.91284252046E+00
  3.95216724157E+00  3.99188718269E+00  4.03200631586E+00  4.07252865301E+00
  4.11345824643E+00  4.15479918910E+00  4.19655561515E+00  4.23873170026E+00
  4.28133166208E+00  4.32435976062E+00  4.36782029875E+00  4.41171762255E+00
  4.45605612178E+00  4.50084023034E+00  4.54607442668E+00  4.59176323424E+00
  4.63791122196E+00  4.68452300466E+00  4.73160324356E+00  4.77915664674E+00
  4.82718796956E+00  4.87570201520E+00  4.92470363511E+00  4.97419772948E+00
  5.02418924777E+00  5.07468318917E+00  5.12568460312E+00  5.17719858980E+00
  5.22923030066E+00  5.28178493890E+00  5.33486776004E+00  5.38848407240E+00
  5.44263923766E+00  5.49733867138E+00  5.55258784354E+00  5.60839227912E+00
  5.66475755860E+00  5.72168931855E+00  5.77919325221E+00  5.83727511001E+00
  5.89594070018E+00  5.95519588933E+00  6.01504660304E+00  6.07549882642E+00
  6.13655860474E+00  6.19823204404E+00  6.26052531171E+00  6.32344463713E+00
  6.38699631228E+00  6.45118669238E+00  6.51602219653E+00  6.58150930833E+00
  6.64765457655E+00  6.71446461576E+00  6.78194610703E+00  6.85010579856E+00
  6.91895050638E+00  6.98848711502E+00  7.05872257819E+00  7.12966391950E+00
  7.20131823315E+00  7.27369268461E+00  7.34679451141E+00  7.42063102379E+00
  7.49520960545E+00  7.57053771431E+00  7.64662288326E+00  7.72347272086E+00
  7.80109491218E+00  7.87949721948E+00  7.95868748308E+00  8.03867362206E+00
  8.11946363509E+00  8.20106560126E+00  8.28348768082E+00  8.36673811605E+00
  8.45082523207E+00  8.53575743765E+00  8.62154322609E+00  8.70819117603E+00
  8.79570995235E+00  8.88410830700E+00  8.97339507988E+00  9.06357919974E+00
  9.15466968508E+00  9.24667564502E+00  9.33960628022E+00  9.43347088384E+00
  9.52827884240E+00  9.62403963679E+00  9.72076284317E+00  9.81845813393E+00
  9.91713527868E+00  1.00168041452E+01  1.01174747005E+01  1.02191570117E+01
  1.03218612472E+01  1.04255976773E+01  1.05303766759E+01  1.06362087210E+01
  1.07431043958E+01  1.08510743900E+01  1.09601295006E+01  1.10702806334E+01
  1.11815388034E+01  1.12939151366E+01  1.14074208708E+01  1.15220673565E+01
  1.16378660586E+01  1.17548285570E+01  1.18729665481E+01  1.19922918457E+01
  1.21128163824E+01  1.22345522109E+01  1.23575115049E+01  1.24817065602E+01
  1.26071497966E+01  1.27338537586E+01  1.28618311165E+01  1.29910946682E+01
  1.31216573402E+01  1.32535321889E+01  1.33867324019E+01  1.35212712992E+01
  1.36571623349E+01  1.37944190983E+01  1.39330553151E+01  1.40730848490E+01
  1.42145217031E+01  1.43573800212E+01  1.45016740894E+01  1.46474183370E+01
  1.47946273386E+01  1.49433158153E+01  1.50934986360E+01  1.52451908192E+01
  1.53984075342E+01  1.55531641027E+01  1.57094760006E+01  1.58673588592E+01
  1.60268284670E+01  1.61879007709E+01  1.63505918784E+01  1.65149180587E+01
  1.66808957445E+01  1.68485415339E+01  1.70178721914E+01  1.71889046504E+01
  1.73616560141E+01  1.75361435579E+01  1.77123847307E+01  1.78903971567E+01
  1.80701986373E+01  1.82518071529E+01  1.84352408643E+01  1.86205181153E+01
  1.88076574335E+01  1.89966775332E+01  1.91875973164E+01  1.93804358754E+01
  1.95752124941E+01  1.97719466504E+01  1.99706580178E+01  2.01713664677E+01
  2.03740920710E+01  2.05788551005E+01  2.07856760326E+01  2.09945755497E+01
  2.12055745419E+01  2.14186941091E+01  2.16339555636E+01  2.18513804317E+01
  2.20709904561E+01  2.22928075979E+01  2.25168540390E+01  2.27431521843E+01
  2.29717246638E+01  2.32025943349E+01  2.34357842847E+01  2.36713178326E+01
  2.39092185319E+01  2.41495101730E+01  2.43922167852E+01  2.46373626395E+01
  2.48849722505E+01  2.51350703795E+01  2.53876820365E+01  2.56428324828E+01
  2.59005472338E+01  2.61608520611E+01  2.64237729953E+01  2.66893363289E+01
  2.69575686184E+01  2.72284966872E+01  2.75021476284E+01  2.77785488072E+01
  2.80577278641E+01  2.83397127171E+01  2.86245315650E+01  2.89122128900E+01
  2.92027854603E+01  2.94962783335E+01  2.97927208591E+01  3.00921426816E+01