<PP_INFO>
Generated using Vanderbilt code, version   7  3  2                              
Author: unknown    Generation date:    0    0    0                              
Automatically converted from original format                                    
    0        The Pseudo was generated with a Non-Relativistic Calculation
nl pn  l   occ               Rcut            Rcut US             E pseu
0S  0  0  1.00      0.00000000000      0.00000000000      0.00000000000
</PP_INFO>


<PP_HEADER>
   0                   Version Number
   H                   Element
   NC                  Norm - Conserving pseudopotential
    F                  Nonlinear Core Correction
 SLA  PW   SCAN SCAN   SCAN Exchange-Correlation functional
    1.00000000000      Z valence
    0.00000000000      Total energy
    0.00000    0.00000 Suggested cutoff for wfc and rho
    0                  Max angular momentum component
 2419                  Number of points in mesh
    0    0             Number of Wavefunctions, Number of Projectors
 Wavefunctions         nl  l   occ
</PP_HEADER>


<PP_MESH>
  <PP_R>
  3.56206478307E-04  3.57991970710E-04  3.59786412930E-04  3.61589849830E-04
  3.63402326495E-04  3.65223888237E-04  3.67054580595E-04  3.68894449337E-04
  3.70743540459E-04  3.72601900189E-04  3.74469574986E-04  3.76346611542E-04
  3.78233056783E-04  3.80128957869E-04  3.82034362200E-04  3.83949317410E-04
  3.85873871372E-04  3.87808072201E-04  3.89751968253E-04  3.91705608124E-04
  3.93669040655E-04  3.95642314933E-04  3.97625480290E-04  3.99618586304E-04
  4.01621682803E-04  4.03634819866E-04  4.05658047820E-04  4.07691417247E-04
  4.09734978980E-04  4.11788784109E-04  4.13852883979E-04  4.15927330192E-04
  4.18012174611E-04  4.20107469356E-04  4.22213266809E-04  4.24329619616E-04
  4.26456580686E-04  4.28594203192E-04  4.30742540576E-04  4.32901646545E-04
  4.35071575079E-04  4.37252380424E-04  4.39444117102E-04  4.41646839905E-04
  4.43860603903E-04  4.46085464439E-04  4.48321477134E-04  4.50568697890E-04
  4.52827182887E-04  4.55096988587E-04  4.57378171735E-04  4.59670789362E-04
  4.61974898782E-04  4.64290557598E-04  4.66617823703E-04  4.68956755278E-04
  4.71307410796E-04  4.73669849024E-04  4.76044129022E-04  4.78430310149E-04
  4.80828452058E-04  4.83238614704E-04  4.85660858340E-04  4.88095243523E-04
  4.90541831113E-04  4.93000682274E-04  4.95471858477E-04  4.97955421503E-04
  5.00451433441E-04  5.02959956690E-04  5.05481053964E-04  5.08014788291E-04
  5.10561223014E-04  5.13120421795E-04  5.15692448612E-04  5.18277367768E-04
  5.20875243885E-04  5.23486141910E-04  5.26110127116E-04  5.28747265103E-04
  5.31397621798E-04  5.34061263462E-04  5.36738256685E-04  5.39428668393E-04
  5.42132565846E-04  5.44850016640E-04  5.47581088714E-04  5.50325850344E-04
  5.53084370148E-04  5.55856717090E-04  5.58642960479E-04  5.61443169972E-04
  5.64257415573E-04  5.67085767638E-04  5.69928296878E-04  5.72785074354E-04
  5.75656171487E-04  5.78541660055E-04  5.81441612194E-04  5.84356100403E-04
  5.87285197546E-04  5.90228976849E-04  5.93187511907E-04  5.96160876684E-04
  5.99149145514E-04  6.02152393104E-04  6.05170694535E-04  6.08204125265E-04
  6.11252761130E-04  6.14316678345E-04  6.17395953510E-04  6.20490663605E-04
  6.23600885999E-04  6.26726698448E-04  6.29868179098E-04  6.33025406484E-04
  6.36198459539E-04  6.39387417588E-04  6.42592360356E-04  6.45813367966E-04
  6.49050520944E-04  6.52303900219E-04  6.55573587126E-04  6.58859663406E-04
  6.62162211212E-04  6.65481313108E-04  6.68817052072E-04  6.72169511496E-04
  6.75538775194E-04  6.78924927396E-04  6.82328052756E-04  6.85748236354E-04
  6.89185563693E-04  6.92640120707E-04  6.96111993760E-04  6.99601269649E-04
  7.03108035606E-04  7.06632379301E-04  7.10174388843E-04  7.13734152780E-04
  7.17311760109E-04  7.20907300270E-04  7.24520863150E-04  7.28152539089E-04
  7.31802418880E-04  7.35470593770E-04  7.39157155463E-04  7.42862196123E-04
  7.46585808377E-04  7.50328085315E-04  7.54089120494E-04  7.57869007940E-04
  7.61667842151E-04  7.65485718098E-04  7.69322731227E-04  7.73178977465E-04
  7.77054553218E-04  7.80949555374E-04  7.84864081311E-04  7.88798228890E-04
  7.92752096466E-04  7.96725782886E-04  8.00719387492E-04  8.04733010125E-04
  8.08766751124E-04  8.12820711335E-04  8.16894992105E-04  8.20989695293E-04
  8.25104923266E-04  8.29240778905E-04  8.33397365607E-04  8.37574787286E-04
  8.41773148379E-04  8.45992553844E-04  8.50233109167E-04  8.54494920362E-04
  8.58778093974E-04  8.63082737084E-04  8.67408957307E-04  8.71756862799E-04
  8.76126562258E-04  8.80518164927E-04  8.84931780596E-04  8.89367519605E-04
  8.93825492849E-04  8.98305811776E-04  9.02808588396E-04  9.07333935277E-04
  9.11881965555E-04  9.16452792928E-04  9.21046531669E-04  9.25663296622E-04
  9.30303203205E-04  9.34966367417E-04  9.39652905836E-04  9.44362935627E-04
  9.49096574541E-04  9.53853940918E-04  9.58635153694E-04  9.63440332398E-04
  9.68269597161E-04  9.73123068715E-04  9.78000868395E-04  9.82903118149E-04
  9.87829940531E-04  9.92781458714E-04  9.97757796484E-04  1.00275907825E-03
  1.00778542905E-03  1.01283697453E-03  1.01791384100E-03  1.02301615536E-03
  1.02814404517E-03  1.03329763865E-03  1.03847706462E-03  1.04368245256E-03
  1.04891393263E-03  1.05417163559E-03  1.05945569291E-03  1.06476623667E-03
  1.07010339964E-03  1.07546731525E-03  1.08085811760E-03  1.08627594146E-03
  1.09172092228E-03  1.09719319618E-03  1.10269289996E-03  1.10822017112E-03
  1.11377514784E-03  1.11935796901E-03  1.12496877417E-03  1.13060770362E-03
  1.13627489832E-03  1.14197049995E-03  1.14769465090E-03  1.15344749428E-03
  1.15922917390E-03  1.16503983432E-03  1.17087962079E-03  1.17674867931E-03
  1.18264715662E-03  1.18857520016E-03  1.19453295814E-03  1.20052057951E-03
  1.20653821396E-03  1.21258601192E-03  1.21866412460E-03  1.22477270395E-03
  1.23091190267E-03  1.23708187426E-03  1.24328277296E-03  1.24951475379E-03
  1.25577797256E-03  1.26207258584E-03  1.26839875101E-03  1.27475662620E-03
  1.28114637038E-03  1.28756814329E-03  1.29402210547E-03  1.30050841826E-03
  1.30702724384E-03  1.31357874516E-03  1.32016308602E-03  1.32678043103E-03
  1.33343094561E-03  1.34011479604E-03  1.34683214941E-03  1.35358317366E-03
  1.36036803755E-03  1.36718691071E-03  1.37403996362E-03  1.38092736760E-03
  1.38784929484E-03  1.39480591838E-03  1.40179741214E-03  1.40882395091E-03
  1.41588571035E-03  1.42298286700E-03  1.43011559831E-03  1.43728408258E-03
  1.44448849902E-03  1.45172902775E-03  1.45900584979E-03  1.46631914704E-03
  1.47366910235E-03  1.48105589947E-03  1.48847972306E-03  1.49594075872E-03
  1.50343919298E-03  1.51097521329E-03  1.51854900807E-03  1.52616076665E-03
  1.53381067932E-03  1.54149893735E-03  1.54922573293E-03  1.55699125923E-03
  1.56479571039E-03  1.57263928153E-03  1.58052216874E-03  1.58844456908E-03
  1.59640668061E-03  1.60440870240E-03  1.61245083449E-03  1.62053327793E-03
  1.62865623479E-03  1.63681990814E-03  1.64502450207E-03  1.65327022170E-03
  1.66155727317E-03  1.66988586366E-03  1.67825620139E-03  1.68666849561E-03
  1.69512295662E-03  1.70361979580E-03  1.71215922557E-03  1.72074145940E-03
  1.72936671186E-03  1.73803519857E-03  1.74674713626E-03  1.75550274272E-03
  1.76430223683E-03  1.77314583860E-03  1.78203376910E-03  1.79096625054E-03
  1.79994350623E-03  1.80896576060E-03  1.81803323921E-03  1.82714616874E-03
  1.83630477703E-03  1.84550929303E-03  1.85475994686E-03  1.86405696978E-03
  1.87340059422E-03  1.88279105378E-03  1.89222858321E-03  1.90171341845E-03
  1.91124579663E-03  1.92082595606E-03  1.93045413623E-03  1.94013057785E-03
  1.94985552285E-03  1.95962921433E-03  1.96945189664E-03  1.97932381535E-03
  1.98924521727E-03  1.99921635041E-03  2.00923746407E-03  2.01930880877E-03
  2.02943063630E-03  2.03960319969E-03  2.04982675328E-03  2.06010155264E-03
  2.07042785464E-03  2.08080591745E-03  2.09123600052E-03  2.10171836459E-03
  2.11225327173E-03  2.12284098532E-03  2.13348177004E-03  2.14417589191E-03
  2.15492361830E-03  2.16572521788E-03  2.17658096072E-03  2.18749111818E-03
  2.19845596304E-03  2.20947576942E-03  2.22055081280E-03  2.23168137007E-03
  2.24286771949E-03  2.25411014071E-03  2.26540891481E-03  2.27676432425E-03
  2.28817665292E-03  2.29964618612E-03  2.31117321060E-03  2.32275801453E-03
  2.33440088753E-03  2.34610212067E-03  2.35786200649E-03  2.36968083898E-03
  2.38155891362E-03  2.39349652735E-03  2.40549397862E-03  2.41755156736E-03
  2.42966959502E-03  2.44184836455E-03  2.45408818041E-03  2.46638934861E-03
  2.47875217667E-03  2.49117697366E-03  2.50366405020E-03  2.51621371848E-03
  2.52882629223E-03  2.54150208677E-03  2.55424141899E-03  2.56704460739E-03
  2.57991197203E-03  2.59284383460E-03  2.60584051841E-03  2.61890234836E-03
  2.63202965101E-03  2.64522275454E-03  2.65848198878E-03  2.67180768520E-03
  2.68520017695E-03  2.69865979885E-03  2.71218688739E-03  2.72578178073E-03
  2.73944481877E-03  2.75317634307E-03  2.76697669691E-03  2.78084622533E-03
  2.79478527504E-03  2.80879419453E-03  2.82287333402E-03  2.83702304549E-03
  2.85124368268E-03  2.86553560111E-03  2.87989915809E-03  2.89433471269E-03
  2.90884262581E-03  2.92342326015E-03  2.93807698022E-03  2.95280415237E-03
  2.96760514478E-03  2.98248032747E-03  2.99743007233E-03  3.01245475309E-03
  3.02755474538E-03  3.04273042669E-03  3.05798217642E-03  3.07331037587E-03
  3.08871540824E-03  3.10419765865E-03  3.11975751416E-03  3.13539536378E-03
  3.15111159844E-03  3.16690661106E-03  3.18278079651E-03  3.19873455164E-03
  3.21476827531E-03  3.23088236834E-03  3.24707723361E-03  3.26335327598E-03
  3.27971090234E-03  3.29615052165E-03  3.31267254490E-03  3.32927738513E-03
  3.34596545747E-03  3.36273717912E-03  3.37959296938E-03  3.39653324963E-03
  3.41355844340E-03  3.43066897630E-03  3.44786527610E-03  3.46514777272E-03
  3.48251689821E-03  3.49997308681E-03  3.51751677491E-03  3.53514840112E-03
  3.55286840622E-03  3.57067723322E-03  3.58857532733E-03  3.60656313602E-03
  3.62464110897E-03  3.64280969813E-03  3.66106935773E-03  3.67942054425E-03
  3.69786371648E-03  3.71639933550E-03  3.73502786469E-03  3.75374976977E-03
  3.77256551879E-03  3.79147558215E-03  3.81048043259E-03  3.82958054524E-03
  3.84877639761E-03  3.86806846959E-03  3.88745724348E-03  3.90694320400E-03
  3.92652683831E-03  3.94620863599E-03  3.96598908909E-03  3.98586869213E-03
  4.00584794209E-03  4.02592733846E-03  4.04610738322E-03  4.06638858088E-03
  4.08677143846E-03  4.10725646555E-03  4.12784417426E-03  4.14853507928E-03
  4.16932969790E-03  4.19022854998E-03  4.21123215800E-03  4.23234104703E-03
  4.25355574482E-03  4.27487678171E-03  4.29630469075E-03  4.31784000763E-03
  4.33948327074E-03  4.36123502115E-03  4.38309580267E-03  4.40506616181E-03
  4.42714664783E-03  4.44933781275E-03  4.47164021135E-03  4.49405440118E-03
  4.51658094261E-03  4.53922039880E-03  4.56197333574E-03  4.58484032224E-03
  4.60782192999E-03  4.63091873353E-03  4.65413131028E-03  4.67746024056E-03
  4.70090610758E-03  4.72446949751E-03  4.74815099941E-03  4.77195120534E-03
  4.79587071030E-03  4.81991011227E-03  4.84407001225E-03  4.86835101423E-03
  4.89275372524E-03  4.91727875535E-03  4.94192671768E-03  4.96669822844E-03
  4.99159390691E-03  5.01661437549E-03  5.04176025969E-03  5.06703218816E-03
  5.09243079270E-03  5.11795670827E-03  5.14361057303E-03  5.16939302832E-03
  5.19530471871E-03  5.22134629198E-03  5.24751839918E-03  5.27382169462E-03
  5.30025683587E-03  5.32682448382E-03  5.35352530266E-03  5.38035995991E-03
  5.40732912644E-03  5.43443347648E-03  5.46167368764E-03  5.48905044093E-03
  5.51656442076E-03  5.54421631499E-03  5.57200681492E-03  5.59993661531E-03
  5.62800641440E-03  5.65621691395E-03  5.68456881922E-03  5.71306283900E-03
  5.74169968565E-03  5.77048007510E-03  5.79940472684E-03  5.82847436401E-03
  5.85768971334E-03  5.88705150521E-03  5.91656047368E-03  5.94621735647E-03
  5.97602289501E-03  6.00597783442E-03  6.03608292360E-03  6.06633891516E-03
  6.09674656552E-03  6.12730663485E-03  6.15801988717E-03  6.18888709031E-03
  6.21990901594E-03  6.25108643963E-03  6.28242014080E-03  6.31391090280E-03
  6.34555951291E-03  6.37736676233E-03  6.40933344626E-03  6.44146036385E-03
  6.47374831829E-03  6.50619811677E-03  6.53881057055E-03  6.57158649493E-03
  6.60452670931E-03  6.63763203721E-03  6.67090330626E-03  6.70434134823E-03
  6.73794699909E-03  6.77172109897E-03  6.80566449223E-03  6.83977802746E-03
  6.87406255750E-03  6.90851893945E-03  6.94314803475E-03  6.97795070910E-03
  7.01292783259E-03  7.04808027963E-03  7.08340892905E-03  7.11891466406E-03
  7.15459837231E-03  7.19046094590E-03  7.22650328138E-03  7.26272627981E-03
  7.29913084679E-03  7.33571789241E-03  7.37248833137E-03  7.40944308291E-03
  7.44658307092E-03  7.48390922390E-03  7.52142247499E-03  7.55912376204E-03
  7.59701402758E-03  7.63509421886E-03  7.67336528790E-03  7.71182819146E-03
  7.75048389114E-03  7.78933335331E-03  7.82837754923E-03  7.86761745499E-03
  7.90705405159E-03  7.94668832496E-03  7.98652126596E-03  8.02655387040E-03
  8.06678713910E-03  8.10722207790E-03  8.14785969768E-03  8.18870101437E-03
  8.22974704902E-03  8.27099882777E-03  8.31245738192E-03  8.35412374794E-03
  8.39599896749E-03  8.43808408745E-03  8.48038015995E-03  8.52288824240E-03
  8.56560939750E-03  8.60854469328E-03  8.65169520312E-03  8.69506200580E-03
  8.73864618547E-03  8.78244883176E-03  8.82647103973E-03  8.87071390993E-03
  8.91517854844E-03  8.95986606688E-03  9.00477758244E-03  9.04991421790E-03
  9.09527710170E-03  9.14086736789E-03  9.18668615624E-03  9.23273461223E-03
  9.27901388706E-03  9.32552513773E-03  9.37226952701E-03  9.41924822351E-03
  9.46646240171E-03  9.51391324196E-03  9.56160193054E-03  9.60952965967E-03
  9.65769762754E-03  9.70610703835E-03  9.75475910234E-03  9.80365503582E-03
  9.85279606119E-03  9.90218340697E-03  9.95181830785E-03  1.00017020047E-02
  1.00518357446E-02  1.01022207810E-02  1.01528583734E-02  1.02037497877E-02
  1.02548962964E-02  1.03062991780E-02  1.03579597176E-02  1.04098792068E-02
  1.04620589434E-02  1.05145002321E-02  1.05672043839E-02  1.06201727163E-02
  1.06734065535E-02  1.07269072265E-02  1.07806760727E-02  1.08347144364E-02
  1.08890236686E-02  1.09436051268E-02  1.09984601758E-02  1.10535901869E-02
  1.11089965382E-02  1.11646806151E-02  1.12206438096E-02  1.12768875207E-02
  1.13334131547E-02  1.13902221245E-02  1.14473158505E-02  1.15046957600E-02
  1.15623632875E-02  1.16203198746E-02  1.16785669704E-02  1.17371060309E-02
  1.17959385198E-02  1.18550659076E-02  1.19144896728E-02  1.19742113008E-02
  1.20342322847E-02  1.20945541251E-02  1.21551783299E-02  1.22161064148E-02
  1.22773399031E-02  1.23388803254E-02  1.24007292204E-02  1.24628881343E-02
  1.25253586211E-02  1.25881422424E-02  1.26512405680E-02  1.27146551752E-02
  1.27783876495E-02  1.28424395842E-02  1.29068125805E-02  1.29715082478E-02
  1.30365282034E-02  1.31018740730E-02  1.31675474901E-02  1.32335500965E-02
  1.32998835424E-02  1.33665494861E-02  1.34335495942E-02  1.35008855418E-02
  1.35685590122E-02  1.36365716973E-02  1.37049252974E-02  1.37736215213E-02
  1.38426620865E-02  1.39120487189E-02  1.39817831533E-02  1.40518671330E-02
  1.41223024102E-02  1.41930907456E-02  1.42642339090E-02  1.43357336790E-02
  1.44075918431E-02  1.44798101978E-02  1.45523905484E-02  1.46253347096E-02
  1.46986445049E-02  1.47723217671E-02  1.48463683381E-02  1.49207860691E-02
  1.49955768205E-02  1.50707424621E-02  1.51462848730E-02  1.52222059419E-02
  1.52985075667E-02  1.53751916550E-02  1.54522601239E-02  1.55297149001E-02
  1.56075579200E-02  1.56857911296E-02  1.57644164849E-02  1.58434359513E-02
  1.59228515045E-02  1.60026651298E-02  1.60828788226E-02  1.61634945882E-02
  1.62445144419E-02  1.63259404094E-02  1.64077745263E-02  1.64900188384E-02
  1.65726754018E-02  1.66557462829E-02  1.67392335586E-02  1.68231393160E-02
  1.69074656527E-02  1.69922146770E-02  1.70773885075E-02  1.71629892736E-02
  1.72490191153E-02  1.73354801835E-02  1.74223746395E-02  1.75097046558E-02
  1.75974724156E-02  1.76856801132E-02  1.77743299537E-02  1.78634241533E-02
  1.79529649395E-02  1.80429545508E-02  1.81333952368E-02  1.82242892587E-02
  1.83156388887E-02  1.84074464107E-02  1.84997141198E-02  1.85924443227E-02
  1.86856393377E-02  1.87793014947E-02  1.88734331352E-02  1.89680366124E-02
  1.90631142916E-02  1.91586685496E-02  1.92547017754E-02  1.93512163697E-02
  1.94482147454E-02  1.95456993275E-02  1.96436725531E-02  1.97421368715E-02
  1.98410947444E-02  1.99405486456E-02  2.00405010617E-02  2.01409544913E-02
  2.02419114458E-02  2.03433744492E-02  2.04453460379E-02  2.05478287614E-02
  2.06508251817E-02  2.07543378737E-02  2.08583694252E-02  2.09629224371E-02
  2.10679995230E-02  2.11736033101E-02  2.12797364384E-02  2.13864015612E-02
  2.14936013451E-02  2.16013384702E-02  2.17096156298E-02  2.18184355310E-02
  2.19278008943E-02  2.20377144536E-02  2.21481789570E-02  2.22591971661E-02
  2.23707718562E-02  2.24829058167E-02  2.25956018511E-02  2.27088627767E-02
  2.28226914251E-02  2.29370906419E-02  2.30520632872E-02  2.31676122353E-02
  2.32837403749E-02  2.34004506092E-02  2.35177458560E-02  2.36356290477E-02
  2.37541031313E-02  2.38731710687E-02  2.39928358367E-02  2.41131004268E-02
  2.42339678457E-02  2.43554411150E-02  2.44775232717E-02  2.46002173676E-02
  2.47235264703E-02  2.48474536625E-02  2.49720020423E-02  2.50971747234E-02
  2.52229748352E-02  2.53494055227E-02  2.54764699467E-02  2.56041712837E-02
  2.57325127264E-02  2.58614974832E-02  2.59911287788E-02  2.61214098539E-02
  2.62523439657E-02  2.63839343874E-02  2.65161844089E-02  2.66490973364E-02
  2.67826764926E-02  2.69169252172E-02  2.70518468664E-02  2.71874448131E-02
  2.73237224473E-02  2.74606831760E-02  2.75983304232E-02  2.77366676302E-02
  2.78756982552E-02  2.80154257742E-02  2.81558536803E-02  2.82969854842E-02
  2.84388247142E-02  2.85813749163E-02  2.87246396542E-02  2.88686225097E-02
  2.90133270822E-02  2.91587569894E-02  2.93049158670E-02  2.94518073691E-02
  2.95994351679E-02  2.97478029541E-02  2.98969144369E-02  3.00467733442E-02
  3.01973834223E-02  3.03487484366E-02  3.05008721712E-02  3.06537584292E-02
  3.08074110328E-02  3.09618338232E-02  3.11170306611E-02  3.12730054263E-02
  3.14297620184E-02  3.15873043561E-02  3.17456363781E-02  3.19047620426E-02
  3.20646853279E-02  3.22254102319E-02  3.23869407729E-02  3.25492809891E-02
  3.27124349390E-02  3.28764067015E-02  3.30412003759E-02  3.32068200820E-02
  3.33732699603E-02  3.35405541721E-02  3.37086768996E-02  3.38776423457E-02
  3.40474547346E-02  3.42181183117E-02  3.43896373435E-02  3.45620161180E-02
  3.47352589447E-02  3.49093701548E-02  3.50843541008E-02  3.52602151576E-02
  3.54369577216E-02  3.56145862114E-02  3.57931050677E-02  3.59725187534E-02
  3.61528317540E-02  3.63340485773E-02  3.65161737537E-02  3.66992118364E-02
  3.68831674012E-02  3.70680450472E-02  3.72538493962E-02  3.74405850934E-02
  3.76282568072E-02  3.78168692293E-02  3.80064270752E-02  3.81969350837E-02
  3.83883980176E-02  3.85808206634E-02  3.87742078317E-02  3.89685643573E-02
  3.91638950990E-02  3.93602049401E-02  3.95574987884E-02  3.97557815762E-02
  3.99550582607E-02  4.01553338236E-02  4.03566132720E-02  4.05589016379E-02
  4.07622039784E-02  4.09665253761E-02  4.11718709391E-02  4.13782458010E-02
  4.15856551212E-02  4.17941040849E-02  4.20035979034E-02  4.22141418141E-02
  4.24257410805E-02  4.26384009927E-02  4.28521268670E-02  4.30669240468E-02
  4.32827979020E-02  4.34997538293E-02  4.37177972528E-02  4.39369336234E-02
  4.41571684197E-02  4.43785071475E-02  4.46009553403E-02  4.48245185593E-02
  4.50492023936E-02  4.52750124603E-02  4.55019544046E-02  4.57300339002E-02
  4.59592566490E-02  4.61896283817E-02  4.64211548574E-02  4.66538418645E-02
  4.68876952200E-02  4.71227207703E-02  4.73589243911E-02  4.75963119875E-02
  4.78348894942E-02  4.80746628756E-02  4.83156381261E-02  4.85578212700E-02
  4.88012183620E-02  4.90458354870E-02  4.92916787605E-02  4.95387543284E-02
  4.97870683679E-02  5.00366270866E-02  5.02874367236E-02  5.05395035491E-02
  5.07928338649E-02  5.10474340042E-02  5.13033103319E-02  5.15604692451E-02
  5.18189171727E-02  5.20786605760E-02  5.23397059484E-02  5.26020598163E-02
  5.28657287384E-02  5.31307193064E-02  5.33970381452E-02  5.36646919127E-02
  5.39336873004E-02  5.42040310330E-02  5.44757298692E-02  5.47487906015E-02
  5.50232200564E-02  5.52990250947E-02  5.55762126115E-02  5.58547895365E-02
  5.61347628341E-02  5.64161395038E-02  5.66989265798E-02  5.69831311320E-02
  5.72687602655E-02  5.75558211209E-02  5.78443208748E-02  5.81342667398E-02
  5.84256659645E-02  5.87185258339E-02  5.90128536694E-02  5.93086568294E-02
  5.96059427089E-02  5.99047187401E-02  6.02049923924E-02  6.05067711726E-02
  6.08100626252E-02  6.11148743326E-02  6.14212139150E-02  6.17290890310E-02
  6.20385073774E-02  6.23494766897E-02  6.26620047422E-02  6.29760993480E-02
  6.32917683596E-02  6.36090196688E-02  6.39278612067E-02  6.42483009445E-02
  6.45703468932E-02  6.48940071039E-02  6.52192896681E-02  6.55462027180E-02
  6.58747544264E-02  6.62049530071E-02  6.65368067150E-02  6.68703238466E-02
  6.72055127397E-02  6.75423817742E-02  6.78809393718E-02  6.82211939963E-02
  6.85631541543E-02  6.89068283947E-02  6.92522253093E-02  6.95993535333E-02
  6.99482217447E-02  7.02988386652E-02  7.06512130604E-02  7.10053537396E-02
  7.13612695564E-02  7.17189694086E-02  7.20784622388E-02  7.24397570343E-02
  7.28028628274E-02  7.31677886960E-02  7.35345437631E-02  7.39031371976E-02
  7.42735782143E-02  7.46458760744E-02  7.50200400853E-02  7.53960796011E-02
  7.57740040228E-02  7.61538227986E-02  7.65355454239E-02  7.69191814418E-02
  7.73047404433E-02  7.76922320673E-02  7.80816660012E-02  7.84730519807E-02
  7.88663997907E-02  7.92617192647E-02  7.96590202859E-02  8.00583127867E-02
  8.04596067495E-02  8.08629122067E-02  8.12682392409E-02  8.16755979853E-02
  8.20849986239E-02  8.24964513917E-02  8.29099665752E-02  8.33255545121E-02
  8.37432255922E-02  8.41629902573E-02  8.45848590016E-02  8.50088423717E-02
  8.54349509673E-02  8.58631954412E-02  8.62935864994E-02  8.67261349017E-02
  8.71608514620E-02  8.75977470481E-02  8.80368325824E-02  8.84781190421E-02
  8.89216174594E-02  8.93673389218E-02  8.98152945722E-02  9.02654956098E-02
  9.07179532894E-02  9.11726789226E-02  9.16296838775E-02  9.20889795793E-02
  9.25505775103E-02  9.30144892107E-02  9.34807262781E-02  9.39493003685E-02
  9.44202231963E-02  9.48935065346E-02  9.53691622155E-02  9.58472021305E-02
  9.63276382305E-02  9.68104825265E-02  9.72957470895E-02  9.77834440514E-02
  9.82735856044E-02  9.87661840021E-02  9.92612515596E-02  9.97588006536E-02
  1.00258843723E-01  1.00761393268E-01  1.01266461854E-01  1.01774062106E-01
  1.02284206716E-01  1.02796908435E-01  1.03312180083E-01  1.03830034541E-01
  1.04350484755E-01  1.04873543736E-01  1.05399224562E-01  1.05927540374E-01
  1.06458504379E-01  1.06992129853E-01  1.07528430136E-01  1.08067418635E-01
  1.08609108825E-01  1.09153514248E-01  1.09700648516E-01  1.10250525304E-01
  1.10803158362E-01  1.11358561505E-01  1.11916748617E-01  1.12477733654E-01
  1.13041530640E-01  1.13608153671E-01  1.14177616911E-01  1.14749934597E-01
  1.15325121038E-01  1.15903190613E-01  1.16484157773E-01  1.17068037044E-01
  1.17654843022E-01  1.18244590377E-01  1.18837293852E-01  1.19432968267E-01
  1.20031628511E-01  1.20633289553E-01  1.21237966433E-01  1.21845674269E-01
  1.22456428253E-01  1.23070243654E-01  1.23687135817E-01  1.24307120166E-01
  1.24930212199E-01  1.25556427493E-01  1.26185781705E-01  1.26818290568E-01
  1.27453969895E-01  1.28092835578E-01  1.28734903588E-01  1.29380189977E-01
  1.30028710878E-01  1.30680482504E-01  1.31335521148E-01  1.31993843188E-01
  1.32655465080E-01  1.33320403366E-01  1.33988674669E-01  1.34660295696E-01
  1.35335283237E-01  1.36013654167E-01  1.36695425446E-01  1.37380614117E-01
  1.38069237311E-01  1.38761312243E-01  1.39456856215E-01  1.40155886616E-01
  1.40858420921E-01  1.41564476694E-01  1.42274071587E-01  1.42987223338E-01
  1.43703949778E-01  1.44424268824E-01  1.45148198484E-01  1.45875756856E-01
  1.46606962130E-01  1.47341832586E-01  1.48080386595E-01  1.48822642622E-01
  1.49568619223E-01  1.50318335046E-01  1.51071808836E-01  1.51829059429E-01
  1.52590105757E-01  1.53354966845E-01  1.54123661815E-01  1.54896209885E-01
  1.55672630368E-01  1.56452942675E-01  1.57237166314E-01  1.58025320890E-01
  1.58817426107E-01  1.59613501768E-01  1.60413567775E-01  1.61217644130E-01
  1.62025750934E-01  1.62837908390E-01  1.63654136803E-01  1.64474456577E-01
  1.65298888222E-01  1.66127452347E-01  1.66960169667E-01  1.67797061000E-01
  1.68638147269E-01  1.69483449499E-01  1.70332988825E-01  1.71186786485E-01
  1.72044863823E-01  1.72907242292E-01  1.73773943450E-01  1.74644988967E-01
  1.75520400617E-01  1.76400200286E-01  1.77284409970E-01  1.78173051773E-01
  1.79066147911E-01  1.79963720713E-01  1.80865792617E-01  1.81772386175E-01
  1.82683524053E-01  1.83599229028E-01  1.84519523993E-01  1.85444431956E-01
  1.86373976039E-01  1.87308179482E-01  1.88247065639E-01  1.89190657982E-01
  1.90138980102E-01  1.91092055705E-01  1.92049908621E-01  1.93012562794E-01
  1.93980042291E-01  1.94952371299E-01  1.95929574127E-01  1.96911675204E-01
  1.97898699084E-01  1.98890670441E-01  1.99887614075E-01  2.00889554910E-01
  2.01896517995E-01  2.02908528503E-01  2.03925611734E-01  2.04947793117E-01
  2.05975098205E-01  2.07007552681E-01  2.08045182357E-01  2.09088013173E-01
  2.10136071201E-01  2.11189382641E-01  2.12247973827E-01  2.13311871223E-01
  2.14381101427E-01  2.15455691170E-01  2.16535667316E-01  2.17621056865E-01
  2.18711886952E-01  2.19808184848E-01  2.20909977959E-01  2.22017293832E-01
  2.23130160148E-01  2.24248604731E-01  2.25372655539E-01  2.26502340676E-01
  2.27637688384E-01  2.28778727045E-01  2.29925485187E-01  2.31077991477E-01
  2.32236274730E-01  2.33400363901E-01  2.34570288094E-01  2.35746076556E-01
  2.36927758682E-01  2.38115364015E-01  2.39308922244E-01  2.40508463208E-01
  2.41714016897E-01  2.42925613449E-01  2.44143283153E-01  2.45367056453E-01
  2.46596963942E-01  2.47833036367E-01  2.49075304632E-01  2.50323799792E-01
  2.51578553060E-01  2.52839595805E-01  2.54106959553E-01  2.55380675988E-01
  2.56660776954E-01  2.57947294452E-01  2.59240260646E-01  2.60539707860E-01
  2.61845668580E-01  2.63158175456E-01  2.64477261300E-01  2.65802959089E-01
  2.67135301966E-01  2.68474323239E-01  2.69820056385E-01  2.71172535046E-01
  2.72531793034E-01  2.73897864331E-01  2.75270783090E-01  2.76650583632E-01
  2.78037300453E-01  2.79430968221E-01  2.80831621778E-01  2.82239296141E-01
  2.83654026500E-01  2.85075848224E-01  2.86504796860E-01  2.87940908131E-01
  2.89384217939E-01  2.90834762368E-01  2.92292577681E-01  2.93757700324E-01
  2.95230166924E-01  2.96710014294E-01  2.98197279430E-01  2.99691999513E-01
  3.01194211912E-01  3.02703954182E-01  3.04221264067E-01  3.05746179499E-01
  3.07278738601E-01  3.08818979688E-01  3.10366941265E-01  3.11922662033E-01
  3.13486180883E-01  3.15057536903E-01  3.16636769379E-01  3.18223917790E-01
  3.19819021816E-01  3.21422121334E-01  3.23033256422E-01  3.24652467358E-01
  3.26279794623E-01  3.27915278900E-01  3.29558961075E-01  3.31210882242E-01
  3.32871083698E-01  3.34539606949E-01  3.36216493707E-01  3.37901785895E-01
  3.39595525645E-01  3.41297755301E-01  3.43008517419E-01  3.44727854767E-01
  3.46455810330E-01  3.48192427306E-01  3.49937749111E-01  3.51691819378E-01
  3.53454681959E-01  3.55226380925E-01  3.57006960569E-01  3.58796465406E-01
  3.60594940173E-01  3.62402429832E-01  3.64218979572E-01  3.66044634804E-01
  3.67879441171E-01  3.69723444544E-01  3.71576691022E-01  3.73439226937E-01
  3.75311098851E-01  3.77192353563E-01  3.79083038103E-01  3.80983199739E-01
  3.82892885975E-01  3.84812144553E-01  3.86741023455E-01  3.88679570902E-01
  3.90627835359E-01  3.92585865532E-01  3.94553710372E-01  3.96531419075E-01
  3.98519041085E-01  4.00516626091E-01  4.02524224034E-01  4.04541885103E-01
  4.06569659741E-01  4.08607598641E-01  4.10655752752E-01  4.12714173279E-01
  4.14782911682E-01  4.16862019679E-01  4.18951549248E-01  4.21051552627E-01
  4.23162082318E-01  4.25283191082E-01  4.27414931949E-01  4.29557358211E-01
  4.31710523429E-01  4.33874481433E-01  4.36049286322E-01  4.38234992465E-01
  4.40431654506E-01  4.42639327361E-01  4.44858066223E-01  4.47087926559E-01
  4.49328964117E-01  4.51581234923E-01  4.53844795282E-01  4.56119701786E-01
  4.58406011305E-01  4.60703780999E-01  4.63013068311E-01  4.65333930974E-01
  4.67666427010E-01  4.70010614731E-01  4.72366552741E-01  4.74734299940E-01
  4.77113915521E-01  4.79505458975E-01  4.81908990090E-01  4.84324568955E-01
  4.86752255960E-01  4.89192111796E-01  4.91644197461E-01  4.94108574256E-01
  4.96585303791E-01  4.99074447985E-01  5.01576069066E-01  5.04090229575E-01
  5.06616992366E-01  5.09156420608E-01  5.11708577787E-01  5.14273527707E-01
  5.16851334492E-01  5.19442062587E-01  5.22045776761E-01  5.24662542107E-01
  5.27292424043E-01  5.29935488318E-01  5.32591801007E-01  5.35261428519E-01
  5.37944437595E-01  5.40640895309E-01  5.43350869075E-01  5.46074426640E-01
  5.48811636094E-01  5.51562565868E-01  5.54327284735E-01  5.57105861812E-01
  5.59898366565E-01  5.62704868807E-01  5.65525438700E-01  5.68360146758E-01
  5.71209063849E-01  5.74072261196E-01  5.76949810380E-01  5.79841783340E-01
  5.82748252374E-01  5.85669290145E-01  5.88604969678E-01  5.91555364367E-01
  5.94520547970E-01  5.97500594618E-01  6.00495578812E-01  6.03505575427E-01
  6.06530659713E-01  6.09570907296E-01  6.12626394184E-01  6.15697196764E-01
  6.18783391806E-01  6.21885056465E-01  6.25002268283E-01  6.28135105190E-01
  6.31283645507E-01  6.34447967948E-01  6.37628151622E-01  6.40824276032E-01