<PP_INFO>
Generated using Vanderbilt code, version   7  3  2                              
Author: Yi Yao    Generation date:    0    0    0                               
Automatically converted from original format                                    
    0        The Pseudo was generated with a Non-Relativistic Calculation
nl pn  l   occ               Rcut            Rcut US             E pseu
0S  0  0  2.00      0.00000000000      0.00000000000      0.00000000000
</PP_INFO>


<PP_HEADER>
   0                   Version Number
  He                   Element
   NC                  Norm - Conserving pseudopotential
    F                  Nonlinear Core Correction
 SLA  PW   SCAN SCAN   SCAN Exchange-Correlation functional
    2.00000000000      Z valence
    0.00000000000      Total energy
    0.00000    0.00000 Suggested cutoff for wfc and rho
    0                  Max angular momentum component
 1279                  Number of points in mesh
    0    0             Number of Wavefunctions, Number of Projectors
 Wavefunctions         nl  l   occ
</PP_HEADER>


<PP_MESH>
  <PP_R>
  1.89116528391E-04  1.91017181100E-04  1.92936935686E-04  1.94875984126E-04
  1.96834520328E-04  1.98812740145E-04  2.00810841402E-04  2.02829023910E-04
  2.04867489490E-04  2.06926441989E-04  2.09006087306E-04  2.11106633405E-04
  2.13228290343E-04  2.15371270288E-04  2.17535787539E-04  2.19722058551E-04
  2.21930301951E-04  2.24160738567E-04  2.26413591443E-04  2.28689085868E-04
  2.30987449391E-04  2.33308911852E-04  2.35653705398E-04  2.38022064511E-04
  2.40414226029E-04  2.42830429170E-04  2.45270915556E-04  2.47735929239E-04
  2.50225716720E-04  2.52740526982E-04  2.55280611507E-04  2.57846224306E-04
  2.60437621943E-04  2.63055063558E-04  2.65698810899E-04  2.68369128343E-04
  2.71066282923E-04  2.73790544357E-04  2.76542185074E-04  2.79321480240E-04
  2.82128707786E-04  2.84964148439E-04  2.87828085744E-04  2.90720806097E-04
  2.93642598773E-04  2.96593755954E-04  2.99574572757E-04  3.02585347268E-04
  3.05626380565E-04  3.08697976755E-04  3.11800443000E-04  3.14934089549E-04
  3.18099229769E-04  3.21296180178E-04  3.24525260472E-04  3.27786793563E-04
  3.31081105606E-04  3.34408526036E-04  3.37769387597E-04  3.41164026378E-04
  3.44592781846E-04  3.48055996880E-04  3.51554017803E-04  3.55087194421E-04
  3.58655880055E-04  3.62260431575E-04  3.65901209440E-04  3.69578577731E-04
  3.73292904188E-04  3.77044560247E-04  3.80833921075E-04  3.84661365614E-04
  3.88527276609E-04  3.92432040655E-04  3.96376048233E-04  4.00359693746E-04
  4.04383375562E-04  4.08447496053E-04  4.12552461633E-04  4.16698682803E-04
  4.20886574189E-04  4.25116554583E-04  4.29389046987E-04  4.33704478654E-04
  4.38063281129E-04  4.42465890298E-04  4.46912746424E-04  4.51404294198E-04
  4.55940982777E-04  4.60523265835E-04  4.65151601602E-04  4.69826452918E-04
  4.74548287270E-04  4.79317576847E-04  4.84134798581E-04  4.89000434198E-04
  4.93914970266E-04  4.98878898242E-04  5.03892714524E-04  5.08956920498E-04
  5.14072022587E-04  5.19238532308E-04  5.24456966314E-04  5.29727846454E-04
  5.35051699820E-04  5.40429058802E-04  5.45860461140E-04  5.51346449979E-04
  5.56887573922E-04  5.62484387087E-04  5.68137449160E-04  5.73847325451E-04
  5.79614586952E-04  5.85439810396E-04  5.91323578308E-04  5.97266479071E-04
  6.03269106979E-04  6.09332062301E-04  6.15455951337E-04  6.21641386481E-04
  6.27888986281E-04  6.34199375504E-04  6.40573185192E-04  6.47011052733E-04
  6.53513621918E-04  6.60081543010E-04  6.66715472807E-04  6.73416074706E-04
  6.80184018774E-04  6.87019981811E-04  6.93924647418E-04  7.00898706068E-04
  7.07942855173E-04  7.15057799154E-04  7.22244249510E-04  7.29502924893E-04
  7.36834551177E-04  7.44239861530E-04  7.51719596489E-04  7.59274504034E-04
  7.66905339662E-04  7.74612866464E-04  7.82397855197E-04  7.90261084368E-04
  7.98203340306E-04  8.06225417243E-04  8.14328117394E-04  8.22512251035E-04
  8.30778636587E-04  8.39128100695E-04  8.47561478312E-04  8.56079612783E-04
  8.64683355929E-04  8.73373568131E-04  8.82151118417E-04  8.91016884551E-04
  8.99971753115E-04  9.09016619605E-04  9.18152388514E-04  9.27379973428E-04
  9.36700297111E-04  9.46114291605E-04  9.55622898316E-04  9.65227068114E-04
  9.74927761423E-04  9.84725948320E-04  9.94622608633E-04  1.00461873204E-03
  1.01471531815E-03  1.02491337664E-03  1.03521392732E-03  1.04561800026E-03
  1.05612663587E-03  1.06674088502E-03  1.07746180915E-03  1.08829048036E-03
  1.09922798152E-03  1.11027540640E-03  1.12143385974E-03  1.13270445741E-03
  1.14408832646E-03  1.15558660530E-03  1.16720044376E-03  1.17893100325E-03
  1.19077945681E-03  1.20274698931E-03  1.21483479751E-03  1.22704409021E-03
  1.23937608833E-03  1.25183202510E-03  1.26441314611E-03  1.27712070950E-03
  1.28995598601E-03  1.30292025920E-03  1.31601482551E-03  1.32924099439E-03
  1.34260008848E-03  1.35609344369E-03  1.36972240938E-03  1.38348834846E-03
  1.39739263752E-03  1.41143666701E-03  1.42562184134E-03  1.43994957904E-03
  1.45442131291E-03  1.46903849011E-03  1.48380257239E-03  1.49871503616E-03
  1.51377737269E-03  1.52899108821E-03  1.54435770412E-03  1.55987875708E-03
  1.57555579922E-03  1.59139039825E-03  1.60738413765E-03  1.62353861681E-03
  1.63985545117E-03  1.65633627245E-03  1.67298272874E-03  1.68979648469E-03
  1.70677922170E-03  1.72393263805E-03  1.74125844911E-03  1.75875838746E-03
  1.77643420311E-03  1.79428766367E-03  1.81232055448E-03  1.83053467887E-03
  1.84893185824E-03  1.86751393234E-03  1.88628275940E-03  1.90524021630E-03
  1.92438819881E-03  1.94372862174E-03  1.96326341915E-03  1.98299454455E-03
  2.00292397105E-03  2.02305369161E-03  2.04338571923E-03  2.06392208713E-03
  2.08466484895E-03  2.10561607900E-03  2.12677787241E-03  2.14815234538E-03
  2.16974163537E-03  2.19154790133E-03  2.21357332392E-03  2.23582010567E-03
  2.25829047131E-03  2.28098666787E-03  2.30391096500E-03  2.32706565514E-03
  2.35045305379E-03  2.37407549971E-03  2.39793535515E-03  2.42203500612E-03
  2.44637686262E-03  2.47096335884E-03  2.49579695346E-03  2.52088012985E-03
  2.54621539635E-03  2.57180528652E-03  2.59765235935E-03  2.62375919959E-03
  2.65012841794E-03  2.67676265133E-03  2.70366456322E-03  2.73083684382E-03
  2.75828221038E-03  2.78600340746E-03  2.81400320720E-03  2.84228440961E-03
  2.87084984283E-03  2.89970236342E-03  2.92884485667E-03  2.95828023684E-03
  2.98801144750E-03  3.01804146180E-03  3.04837328276E-03  3.07900994358E-03
  3.10995450797E-03  3.14121007040E-03  3.17277975645E-03  3.20466672313E-03
  3.23687415914E-03  3.26940528527E-03  3.30226335466E-03  3.33545165313E-03
  3.36897349954E-03  3.40283224612E-03  3.43703127875E-03  3.47157401737E-03
  3.50646391629E-03  3.54170446453E-03  3.57729918616E-03  3.61325164069E-03
  3.64956542339E-03  3.68624416568E-03  3.72329153546E-03  3.76071123750E-03
  3.79850701379E-03  3.83668264395E-03  3.87524194557E-03  3.91418877461E-03
  3.95352702580E-03  3.99326063298E-03  4.03339356955E-03  4.07392984884E-03
  4.11487352451E-03  4.15622869096E-03  4.19799948375E-03  4.24019007998E-03
  4.28280469875E-03  4.32584760156E-03  4.36932309274E-03  4.41323551986E-03
  4.45758927422E-03  4.50238879122E-03  4.54763855085E-03  4.59334307812E-03
  4.63950694353E-03  4.68613476350E-03  4.73323120086E-03  4.78080096527E-03
  4.82884881377E-03  4.87737955117E-03  4.92639803059E-03  4.97590915392E-03
  5.02591787232E-03  5.07642918668E-03  5.12744814820E-03  5.17897985881E-03
  5.23102947171E-03  5.28360219193E-03  5.33670327676E-03  5.39033803637E-03
  5.44451183428E-03  5.49923008790E-03  5.55449826912E-03  5.61032190479E-03
  5.66670657733E-03  5.72365792525E-03  5.78118164373E-03  5.83928348520E-03
  5.89796925988E-03  5.95724483639E-03  6.01711614236E-03  6.07758916496E-03
  6.13866995153E-03  6.20036461022E-03  6.26267931054E-03  6.32562028400E-03
  6.38919382477E-03  6.45340629024E-03  6.51826410172E-03  6.58377374504E-03
  6.64994177122E-03  6.71677479712E-03  6.78427950610E-03  6.85246264868E-03
  6.92133104324E-03  6.99089157667E-03  7.06115120508E-03  7.13211695450E-03
  7.20379592156E-03  7.27619527421E-03  7.34932225245E-03  7.42318416904E-03
  7.49778841024E-03  7.57314243652E-03  7.64925378336E-03  7.72613006195E-03
  7.80377895999E-03  7.88220824243E-03  7.96142575226E-03  8.04143941129E-03
  8.12225722097E-03  8.20388726315E-03  8.28633770088E-03  8.36961677929E-03
  8.45373282635E-03  8.53869425374E-03  8.62450955767E-03  8.71118731975E-03
  8.79873620781E-03  8.88716497683E-03  8.97648246975E-03  9.06669761840E-03
  9.15781944437E-03  9.24985705991E-03  9.34281966887E-03  9.43671656758E-03
  9.53155714581E-03  9.62735088769E-03  9.72410737269E-03  9.82183627653E-03
  9.92054737219E-03  1.00202505308E-02  1.01209557229E-02  1.02226730190E-02
  1.03254125909E-02  1.04291847126E-02  1.05339997615E-02  1.06398682192E-02
  1.07468006725E-02  1.08548078149E-02  1.09639004471E-02  1.10740894785E-02
  1.11853859281E-02  1.12978009256E-02  1.14113457125E-02  1.15260316436E-02
  1.16418701874E-02  1.17588729280E-02  1.18770515657E-02  1.19964179184E-02
  1.21169839228E-02  1.22387616358E-02  1.23617632352E-02  1.24860010211E-02
  1.26114874176E-02  1.27382349733E-02  1.28662563632E-02  1.29955643894E-02
  1.31261719828E-02  1.32580922044E-02  1.33913382463E-02  1.35259234332E-02
  1.36618612236E-02  1.37991652116E-02  1.39378491276E-02  1.40779268402E-02
  1.42194123571E-02  1.43623198271E-02  1.45066635411E-02  1.46524579335E-02
  1.47997175839E-02  1.49484572185E-02  1.50986917112E-02  1.52504360856E-02
  1.54037055164E-02  1.55585153305E-02  1.57148810092E-02  1.58728181890E-02
  1.60323426639E-02  1.61934703865E-02  1.63562174695E-02  1.65206001879E-02
  1.66866349802E-02  1.68543384498E-02  1.70237273673E-02  1.71948186717E-02
  1.73676294724E-02  1.75421770504E-02  1.77184788608E-02  1.78965525338E-02
  1.80764158770E-02  1.82580868769E-02  1.84415837006E-02  1.86269246981E-02
  1.88141284036E-02  1.90032135376E-02  1.91941990088E-02  1.93871039159E-02
  1.95819475495E-02  1.97787493942E-02  1.99775291303E-02  2.01783066360E-02
  2.03811019892E-02  2.05859354695E-02  2.07928275606E-02  2.10017989517E-02
  2.12128705403E-02  2.14260634335E-02  2.16413989510E-02  2.18588986264E-02
  2.20785842098E-02  2.23004776701E-02  2.25246011968E-02  2.27509772023E-02
  2.29796283245E-02  2.32105774287E-02  2.34438476100E-02  2.36794621956E-02
  2.39174447471E-02  2.41578190630E-02  2.44006091810E-02  2.46458393802E-02
  2.48935341839E-02  2.51437183618E-02  2.53964169324E-02  2.56516551660E-02
  2.59094585864E-02  2.61698529742E-02  2.64328643692E-02  2.66985190726E-02
  2.69668436502E-02  2.72378649346E-02  2.75116100282E-02  2.77881063057E-02
  2.80673814171E-02  2.83494632899E-02  2.86343801327E-02  2.89221604374E-02
  2.92128329823E-02  2.95064268347E-02  2.98029713545E-02  3.01024961962E-02
  3.04050313126E-02  3.07106069575E-02  3.10192536887E-02  3.13310023711E-02
  3.16458841798E-02  3.19639306034E-02  3.22851734466E-02  3.26096448341E-02
  3.29373772132E-02  3.32684033575E-02  3.36027563699E-02  3.39404696859E-02
  3.42815770771E-02  3.46261126547E-02  3.49741108723E-02  3.53256065302E-02
  3.56806347782E-02  3.60392311194E-02  3.64014314137E-02  3.67672718815E-02
  3.71367891072E-02  3.75100200427E-02  3.78870020114E-02  3.82677727120E-02
  3.86523702216E-02  3.90408330006E-02  3.94331998953E-02  3.98295101429E-02
  4.02298033748E-02  4.06341196204E-02  4.10424993119E-02  4.14549832876E-02
  4.18716127961E-02  4.22924295008E-02  4.27174754837E-02  4.31467932497E-02
  4.35804257310E-02  4.40184162912E-02  4.44608087297E-02  4.49076472861E-02
  4.53589766447E-02  4.58148419388E-02  4.62752887552E-02  4.67403631390E-02
  4.72101115982E-02  4.76845811078E-02  4.81638191152E-02  4.86478735448E-02
  4.91367928022E-02  4.96306257798E-02  5.01294218614E-02  5.06332309269E-02
  5.11421033578E-02  5.16560900416E-02  5.21752423774E-02  5.26996122809E-02
  5.32292521896E-02  5.37642150679E-02  5.43045544125E-02  5.48503242578E-02
  5.54015791812E-02  5.59583743087E-02  5.65207653202E-02  5.70888084554E-02
  5.76625605190E-02  5.82420788867E-02  5.88274215109E-02  5.94186469262E-02
  6.00158142557E-02  6.06189832167E-02  6.12282141265E-02  6.18435679087E-02
  6.24651060993E-02  6.30928908525E-02  6.37269849474E-02  6.43674517939E-02
  6.50143554392E-02  6.56677605742E-02  6.63277325401E-02  6.69943373344E-02
  6.76676416183E-02  6.83477127228E-02  6.90346186554E-02  6.97284281075E-02
  7.04292104605E-02  7.11370357933E-02  7.18519748889E-02  7.25740992418E-02
  7.33034810652E-02  7.40401932977E-02  7.47843096113E-02  7.55359044182E-02
  7.62950528784E-02  7.70618309076E-02  7.78363151840E-02  7.86185831568E-02
  7.94087130535E-02  8.02067838876E-02  8.10128754669E-02  8.18270684014E-02
  8.26494441108E-02  8.34800848335E-02  8.43190736343E-02  8.51664944127E-02
  8.60224319115E-02  8.68869717252E-02  8.77602003085E-02  8.86422049849E-02
  8.95330739557E-02  9.04328963086E-02  9.13417620264E-02  9.22597619965E-02
  9.31869880197E-02  9.41235328194E-02  9.50694900508E-02  9.60249543104E-02
  9.69900211454E-02  9.79647870635E-02  9.89493495418E-02  9.99438070376E-02
  1.00948258997E-01  1.01962805867E-01  1.02987549102E-01  1.04022591179E-01
  1.05068035600E-01  1.06123986913E-01  1.07190550713E-01  1.08267833658E-01
  1.09355943476E-01  1.10454988980E-01  1.11565080074E-01  1.12686327770E-01
  1.13818844192E-01  1.14962742593E-01  1.16118137365E-01  1.17285144047E-01
  1.18463879341E-01  1.19654461122E-01  1.20857008449E-01  1.22071641577E-01
  1.23298481971E-01  1.24537652316E-01  1.25789276530E-01  1.27053479776E-01
  1.28330388477E-01  1.29620130323E-01  1.30922834290E-01  1.32238630650E-01
  1.33567650983E-01  1.34910028192E-01  1.36265896517E-01  1.37635391545E-01
  1.39018650227E-01  1.40415810889E-01  1.41827013250E-01  1.43252398430E-01
  1.44692108970E-01  1.46146288840E-01  1.47615083462E-01  1.49098639715E-01
  1.50597105956E-01  1.52110632033E-01  1.53639369301E-01  1.55183470633E-01
  1.56743090441E-01  1.58318384690E-01  1.59909510908E-01  1.61516628211E-01
  1.63139897312E-01  1.64779480538E-01  1.66435541849E-01  1.68108246853E-01
  1.69797762822E-01  1.71504258709E-01  1.73227905165E-01  1.74968874556E-01
  1.76727340979E-01  1.78503480285E-01  1.80297470087E-01  1.82109489786E-01
  1.83939720586E-01  1.85788345511E-01  1.87655549426E-01  1.89541519052E-01
  1.91446442988E-01  1.93370511727E-01  1.95313917679E-01  1.97276855186E-01
  1.99259520542E-01  2.01262112017E-01  2.03284829870E-01  2.05327876376E-01
  2.07391455841E-01  2.09475774624E-01  2.11581041159E-01  2.13707465974E-01
  2.15855261715E-01  2.18024643161E-01  2.20215827253E-01  2.22429033111E-01
  2.24664482059E-01  2.26922397641E-01  2.29203005653E-01  2.31506534156E-01
  2.33833213505E-01  2.36183276371E-01  2.38556957761E-01  2.40954495045E-01
  2.43376127980E-01  2.45822098730E-01  2.48292651896E-01  2.50788034533E-01
  2.53308496183E-01  2.55854288893E-01  2.58425667246E-01  2.61022888381E-01
  2.63646212022E-01  2.66295900503E-01  2.68972218797E-01  2.71675434537E-01
  2.74405818047E-01  2.77163642367E-01  2.79949183283E-01  2.82762719350E-01
  2.85604531924E-01  2.88474905190E-01  2.91374126187E-01  2.94302484839E-01
  2.97260273985E-01  3.00247789406E-01  3.03265329856E-01  3.06313197092E-01
  3.09391695903E-01  3.12501134141E-01  3.15641822753E-01  3.18814075811E-01
  3.22018210542E-01  3.25254547362E-01  3.28523409908E-01  3.31825125068E-01
  3.35160023018E-01  3.38528437249E-01  3.41930704606E-01  3.45367165319E-01
  3.48838163036E-01  3.52344044859E-01  3.55885161381E-01  3.59461866716E-01
  3.63074518537E-01  3.66723478112E-01  3.70409110341E-01  3.74131783789E-01
  3.77891870728E-01  3.81689747168E-01  3.85525792902E-01  3.89400391536E-01
  3.93313930533E-01  3.97266801252E-01  4.01259398981E-01  4.05292122985E-01
  4.09365376539E-01  4.13479566972E-01  4.17635105706E-01  4.21832408298E-01
  4.26071894483E-01  4.30353988213E-01  4.34679117699E-01  4.39047715460E-01
  4.43460218359E-01  4.47917067648E-01  4.52418709018E-01  4.56965592636E-01
  4.61558173193E-01  4.66196909953E-01  4.70882266792E-01  4.75614712250E-01
  4.80394719576E-01  4.85222766774E-01  4.90099336653E-01  4.95024916875E-01
  5.00000000000E-01  5.05025083542E-01  5.10100670013E-01  5.15227266977E-01
  5.20405387096E-01  5.25635548188E-01  5.30918273273E-01  5.36254090627E-01
  5.41643533837E-01  5.47087141853E-01  5.52585459038E-01  5.58139035229E-01
  5.63748425790E-01  5.69414191662E-01  5.75136899429E-01  5.80917121364E-01
  5.86755435496E-01  5.92652425660E-01  5.98608681561E-01  6.04624798829E-01
  6.10701379080E-01  6.16839029978E-01  6.23038365294E-01  6.29300004965E-01
  6.35624575161E-01  6.42012708344E-01  6.48465043333E-01  6.54982225367E-01
  6.61564906169E-01  6.68213744013E-01  6.74929403788E-01  6.81712557066E-01
  6.88563882168E-01  6.95484064232E-01  7.02473795282E-01  7.09533774297E-01
  7.16664707280E-01  7.23867307332E-01  7.31142294717E-01  7.38490396941E-01
  7.45912348821E-01  7.53408892556E-01  7.60980777809E-01  7.68628761774E-01
  7.76353609256E-01  7.84156092745E-01  7.92036992497E-01  7.99997096609E-01
  8.08037201096E-01  8.16158109978E-01  8.24360635350E-01  8.32645597473E-01
  8.41013824849E-01  8.49466154309E-01  8.58003431092E-01  8.66626508934E-01
  8.75336250148E-01  8.84133525717E-01  8.93019215375E-01  9.01994207699E-01
  9.11059400195E-01  9.20215699391E-01  9.29464020923E-01  9.38805289632E-01
  9.48240439652E-01  9.57770414507E-01  9.67396167201E-01  9.77118660318E-01
  9.86938866115E-01  9.96857766622E-01  1.00687635374E+00  1.01699562932E+00
  1.02721660532E+00  1.03754030384E+00  1.04796775725E+00  1.05850000831E+00
  1.06913811025E+00  1.07988312689E+00  1.09073613275E+00  1.10169821313E+00
  1.11277046425E+00  1.12395399334E+00  1.13524991877E+00  1.14665937013E+00
  1.15818348839E+00  1.16982342596E+00  1.18158034685E+00  1.19345542676E+00
  1.20544985321E+00  1.21756482564E+00  1.22980155558E+00  1.24216126669E+00
  1.25464519497E+00  1.26725458881E+00  1.27999070916E+00  1.29285482966E+00
  1.30584823671E+00  1.31897222968E+00  1.33222812096E+00  1.34561723617E+00
  1.35914091423E+00  1.37280050751E+00  1.38659738198E+00  1.40053291735E+00
  1.41460850718E+00  1.42882555903E+00  1.44318549463E+00  1.45768974999E+00
  1.47233977553E+00  1.48713703628E+00  1.50208301197E+00  1.51717919722E+00
  1.53242710165E+00  1.54782825006E+00  1.56338418259E+00  1.57909645484E+00
  1.59496663806E+00  1.61099631926E+00  1.62718710144E+00  1.64354060369E+00
  1.66005846137E+00  1.67674232627E+00  1.69359386681E+00  1.71061476814E+00
  1.72780673238E+00  1.74517147873E+00  1.76271074368E+00  1.78042628118E+00
  1.79831986278E+00  1.81639327788E+00  1.83464833381E+00  1.85308685611E+00
  1.87171068863E+00  1.89052169378E+00  1.90952175268E+00  1.92871276535E+00
  1.94809665090E+00  1.96767534774E+00  1.98745081375E+00  2.00742502650E+00
  2.02759998342E+00  2.04797770204E+00  2.06856022013E+00  2.08934959596E+00
  2.11034790850E+00  2.13155725758E+00  2.15297976417E+00  2.17461757053E+00
  2.19647284046E+00  2.21854775950E+00  2.24084453517E+00  2.26336539716E+00
  2.28611259757E+00  2.30908841115E+00  2.33229513549E+00  2.35573509130E+00
  2.37941062257E+00  2.40332409689E+00  2.42747790562E+00  2.45187446416E+00
  2.47651621220E+00  2.50140561392E+00  2.52654515828E+00  2.55193735927E+00
  2.57758475612E+00  2.60348991359E+00  2.62965542222E+00  2.65608389859E+00
  2.68277798556E+00  2.70974035257E+00  2.73697369586E+00  2.76448073881E+00
  2.79226423214E+00  2.82032695421E+00  2.84867171134E+00  2.87730133800E+00
  2.90621869720E+00  2.93542668069E+00  2.96492820930E+00  2.99472623319E+00
  3.02482373221E+00  3.05522371612E+00  3.08592922494E+00  3.11694332926E+00
  3.14826913051E+00  3.17990976130E+00  3.21186838571E+00  3.24414819964E+00
  3.27675243110E+00  3.30968434052E+00  3.34294722114E+00  3.37654439927E+00
  3.41047923465E+00  3.44475512079E+00  3.47937548532E+00  3.51434379029E+00
  3.54966353258E+00  3.58533824417E+00  3.62137149258E+00  3.65776688115E+00
  3.69452804947E+00  3.73165867366E+00  3.76916246683E+00  3.80704317939E+00
  3.84530459944E+00  3.88395055315E+00  3.92298490516E+00  3.96241155892E+00
  4.00223445715E+00  4.04245758215E+00  4.08308495628E+00  4.12412064231E+00
  4.16556874384E+00  4.20743340572E+00  4.24971881444E+00  4.29242919859E+00
  4.33556882923E+00  4.37914202037E+00  4.42315312936E+00  4.46760655735E+00
  4.51250674972E+00  4.55785819652E+00  4.60366543294E+00  4.64993303974E+00
  4.69666564372E+00  4.74386791818E+00  4.79154458338E+00  4.83970040704E+00
  4.88834020476E+00  4.93746884059E+00  4.98709122741E+00  5.03721232751E+00
  5.08783715304E+00  5.13897076652E+00  5.19061828137E+00  5.24278486236E+00
  5.29547572622E+00  5.34869614206E+00  5.40245143197E+00  5.45674697152E+00
  5.51158819032E+00  5.56698057253E+00  5.62292965744E+00  5.67944104000E+00
  5.73652037140E+00  5.79417335961E+00  5.85240576999E+00  5.91122342582E+00
  5.97063220892E+00  6.03063806022E+00  6.09124698035E+00  6.15246503026E+00
  6.21429833179E+00  6.27675306833E+00  6.33983548542E+00  6.40355189133E+00
  6.46790865777E+00  6.53291222047E+00  6.59856907983E+00  6.66488580160E+00
  6.73186901750E+00  6.79952542592E+00  6.86786179254E+00  6.93688495106E+00
  7.00660180387E+00  7.07701932269E+00  7.14814454934E+00  7.21998459640E+00
  7.29254664794E+00  7.36583796022E+00  7.43986586244E+00  7.51463775744E+00
  7.59016112248E+00  7.66644350995E+00  7.74349254817E+00  7.82131594209E+00
  7.89992147413E+00  7.97931700490E+00  8.05951047401E+00  8.14050990089E+00
  8.22232338555E+00  8.30495910939E+00  8.38842533607E+00  8.47273041227E+00
  8.55788276857E+00  8.64389092028E+00  8.73076346829E+00  8.81850909992E+00
  8.90713658981E+00  8.99665480078E+00  9.08707268472E+00  9.17839928351E+00
  9.27064372987E+00  9.36381524834E+00  9.45792315613E+00  9.55297686412E+00
  9.64898587775E+00  9.74595979802E+00  9.84390832238E+00  9.94284124578E+00
  1.00427684616E+01  1.01436999626E+01  1.02456458421E+01  1.03486162947E+01
  1.04526216175E+01  1.05576722113E+01  1.06637785810E+01  1.07709513375E+01
  1.08792011981E+01  1.09885389879E+01  1.10989756407E+01  1.12105222004E+01
  1.13231898216E+01  1.14369897712E+01  1.15519334294E+01  1.16680322905E+01
  1.17852979645E+01  1.19037421782E+01  1.20233767760E+01  1.21442137215E+01
  1.22662650986E+01  1.23895431123E+01  1.25140600907E+01  1.26398284855E+01
  1.27668608737E+01  1.28951699586E+01  1.30247685713E+01  1.31556696716E+01
  1.32878863499E+01  1.34214318279E+01  1.35563194603E+01  1.36925627360E+01
  1.38301752793E+01  1.39691708516E+01  1.41095633527E+01  1.42513668219E+01
  1.43945954396E+01  1.45392635289E+01  1.46853855566E+01  1.48329761352E+01
  1.49820500237E+01  1.51326221297E+01  1.52847075105E+01  1.54383213748E+01
  1.55934790842E+01  1.57501961544E+01  1.59084882573E+01  1.60683712224E+01
  1.62298610379E+01  1.63929738531E+01  1.65577259793E+01  1.67241338920E+01
  1.68922142319E+01  1.70619838074E+01  1.72334595954E+01  1.74066587438E+01
  1.75815985726E+01  1.77582965758E+01  1.79367704235E+01  1.81170379632E+01
  1.82991172218E+01  1.84830264074E+01  1.86687839110E+01  1.88564083086E+01
  1.90459183627E+01  1.92373330245E+01  1.94306714357E+01  1.96259529302E+01
  1.98231970363E+01  2.00224234786E+01  2.02236521800E+01  2.04269032635E+01
  2.06321970543E+01  2.08395540820E+01  2.10489950825E+01  2.12605410000E+01
  2.14742129894E+01  2.16900324179E+01  2.19080208678E+01  2.21282001380E+01
  2.23505922467E+01  2.25752194332E+01  2.28021041604E+01  2.30312691171E+01
  2.32627372199E+01  2.34965316158E+01  2.37326756844E+01  2.39711930404E+01
  2.42121075357E+01  2.44554432619E+01  2.47012245528E+01  2.49494759867E+01
  2.52002223890E+01  2.54534888346E+01  2.57093006503E+01  2.59676834174E+01
  2.62286629745E+01  2.64922654198E+01  2.67585171137E+01  2.70274446817E+01
  2.72990750166E+01  2.75734352817E+01  2.78505529134E+01  2.81304556236E+01
  2.84131714027E+01  2.86987285227E+01  2.89871555395E+01  2.92784812959E+01
  2.95727349249E+01  2.98699458521E+01  3.01701437987E+01  3.04733587848E+01
  3.07796211322E+01  3.10889614674E+01  3.14014107246E+01  3.17170001491E+01
  3.20357613000E+01  3.23577260537E+01  3.26829266070E+01  3.30113954802E+01
  3.33431655205E+01  3.36782699051E+01  3.40167421447E+01  3.43586160869E+01
  3.47039259194E+01  3.50527061733E+01  3.54049917271E+01  3.57608178096E+01
  3.61202200037E+01  3.64832342498E+01  3.68498968498E+01  3.72202444702E+01
  3.75943141460E+01  3.79721432846E+01  3.83537696691E+01  3.87392314626E+01
  3.91285672115E+01  3.95218158498E+01  3.99190167025E+01  4.03202094902E+01
  4.07254343325E+01  4.11347317521E+01  4.15481426792E+01  4.19657084551E+01
  4.23874708369E+01  4.28134720011E+01  4.32437545482E+01  4.36783615067E+01
  4.41173363378E+01  4.45607229393E+01  4.50085656503E+01  4.54609092553E+01
  4.59177989891E+01  4.63792805411E+01  4.68454000597E+01  4.73162041575E+01
  4.77917399150E+01  4.82720548864E+01  4.87571971035E+01  4.92472150810E+01
  4.97421578210E+01  5.02420748182E+01  5.07470160648E+01  5.12570320552E+01
  5.17721737916E+01  5.22924927886E+01  5.28180410783E+01  5.33488712162E+01
  5.38850362857E+01  5.44265899037E+01  5.49735862261E+01  5.55260799528E+01
  5.60841263339E+01  5.66477811743E+01  5.72171008401E+01  5.77921422636E+01
  5.83729629495E+01  5.89596209803E+01  5.95521750224E+01  1.67731313951E-06
  1.69417041682E-06  1.71119711258E-06  1.72839492947E-06  1.74576558730E-06
  1.76331082314E-06  1.78103239154E-06  1.79893206465E-06  1.81701163248E-06
  1.83527290298E-06  1.85371770230E-06  1.87234787493E-06
  </PP_R>
  <PP_RAB>
  1.89116528391E-06  1.91017181100E-06  1.92936935686E-06  1.94875984126E-06
  1.96834520328E-06  1.98812740145E-06  2.00810841402E-06  2.02829023910E-06
  2.04867489490E-06  2.06926441989E-06  2.09006087306E-06  2.11106633405E-06
  2.13228290343E-06  2.15371270288E-06  2.17535787539E-06  2.19722058551E-06
  2.21930301951E-06  2.24160738567E-06  2.26413591443E-06  2.28689085868E-06
  2.30987449391E-06  2.33308911852E-06  2.35653705398E-06  2.38022064511E-06
  2.40414226029E-06  2.42830429170E-06  2.45270915556E-06  2.47735929239E-06
  2.50225716720E-06  2.52740526982E-06  2.55280611507E-06  2.57846224306E-06
  2.60437621943E-06  2.63055063558E-06  2.65698810899E-06  2.68369128343E-06
  2.71066282923E-06  2.73790544357E-06  2.76542185074E-06  2.79321480240E-06
  2.82128707786E-06  2.84964148439E-06  2.87828085744E-06  2.90720806097E-06
  2.93642598773E-06  2.96593755954E-06  2.99574572757E-06  3.02585347268E-06
  3.05626380565E-06  3.08697976755E-06  3.11800443000E-06  3.14934089549E-06
  3.18099229769E-06  3.21296180178E-06  3.24525260472E-06  3.27786793563E-06
  3.31081105606E-06  3.34408526036E-06  3.37769387597E-06  3.41164026378E-06
  3.44592781846E-06  3.48055996880E-06  3.51554017803E-06  3.55087194421E-06
  3.58655880055E-06  3.62260431575E-06  3.65901209440E-06  3.69578577731E-06
  3.73292904188E-06  3.77044560247E-06  3.80833921075E-06  3.84661365614E-06
  3.88527276609E-06  3.92432040655E-06  3.96376048233E-06  4.00359693746E-06
  4.04383375562E-06  4.08447496053E-06  4.12552461633E-06  4.16698682803E-06
  4.20886574189E-06  4.25116554583E-06  4.29389046987E-06  4.33704478654E-06
  4.38063281129E-06  4.42465890298E-06  4.46912746424E-06  4.51404294198E-06
  4.55940982777E-06  4.60523265835E-06  4.65151601602E-06  4.69826452918E-06
  4.74548287270E-06  4.79317576847E-06  4.84134798581E-06  4.89000434198E-06
  4.93914970266E-06  4.98878898242E-06  5.03892714524E-06  5.08956920498E-06
  5.14072022587E-06  5.19238532308E-06  5.24456966314E-06  5.29727846454E-06
  5.35051699820E-06  5.40429058802E-06  5.45860461140E-06  5.51346449979E-06
  5.56887573922E-06  5.62484387087E-06  5.68137449160E-06  5.73847325451E-06
  5.79614586952E-06  5.85439810396E-06  5.91323578308E-06  5.97266479071E-06
  6.03269106979E-06  6.09332062301E-06  6.15455951337E-06  6.21641386481E-06
  6.27888986281E-06  6.34199375504E-06  6.40573185192E-06  6.47011052733E-06
  6.53513621918E-06  6.60081543010E-06  6.66715472807E-06  6.73416074706E-06
  6.80184018774E-06  6.87019981811E-06  6.93924647418E-06  7.00898706068E-06
  7.07942855173E-06  7.15057799154E-06  7.22244249510E-06  7.29502924893E-06
  7.36834551177E-06  7.44239861530E-06  7.51719596489E-06  7.59274504034E-06
  7.66905339662E-06  7.74612866464E-06  7.82397855197E-06  7.90261084368E-06
  7.98203340306E-06  8.06225417243E-06  8.14328117394E-06  8.22512251035E-06
  8.30778636587E-06  8.39128100695E-06  8.47561478312E-06  8.56079612783E-06
  8.64683355929E-06  8.73373568131E-06  8.82151118417E-06  8.91016884551E-06
  8.99971753115E-06  9.09016619605E-06  9.18152388514E-06  9.27379973428E-06
  9.36700297111E-06  9.46114291605E-06  9.55622898316E-06  9.65227068114E-06
  9.74927761423E-06  9.84725948320E-06  9.94622608633E-06  1.00461873204E-05
  1.01471531815E-05  1.02491337664E-05  1.03521392732E-05  1.04561800026E-05
  1.05612663587E-05  1.06674088502E-05  1.07746180915E-05  1.08829048036E-05
  1.09922798152E-05  1.11027540640E-05  1.12143385974E-05  1.13270445741E-05
  1.14408832646E-05  1.15558660530E-05  1.16720044376E-05  1.17893100325E-05
  1.19077945681E-05  1.20274698931E-05  1.21483479751E-05  1.22704409021E-05
  1.23937608833E-05  1.25183202510E-05  1.26441314611E-05  1.27712070950E-05
  1.28995598601E-05  1.30292025920E-05  1.31601482551E-05  1.32924099439E-05
  1.34260008848E-05  1.35609344369E-05  1.36972240938E-05  1.38348834846E-05
  1.39739263752E-05  1.41143666701E-05  1.42562184134E-05  1.43994957904E-05
  1.45442131291E-05  1.46903849011E-05  1.48380257239E-05  1.49871503616E-05
  1.51377737269E-05  1.52899108821E-05  1.54435770412E-05  1.55987875708E-05
  1.57555579922E-05  1.59139039825E-05  1.60738413765E-05  1.62353861681E-05
  1.63985545117E-05  1.65633627245E-05  1.67298272874E-05  1.68979648469E-05