<PP_INFO>
Generated using Vanderbilt code, version   7  3  2                              
Author: Yi Yao    Generation date:    0    0    0                               
Automatically converted from original format                                    
    0        The Pseudo was generated with a Non-Relativistic Calculation
nl pn  l   occ               Rcut            Rcut US             E pseu
0S  0  0  1.00      0.00000000000      0.00000000000      0.00000000000
0P  0  1  0.00      0.00000000000      0.00000000000      0.00000000000
</PP_INFO>


<PP_HEADER>
   0                   Version Number
  Li                   Element
   NC                  Norm - Conserving pseudopotential
    F                  Nonlinear Core Correction
 SLA  PW   SCAN SCAN   SCAN Exchange-Correlation functional
    1.00000000000      Z valence
    0.00000000000      Total energy
    0.00000    0.00000 Suggested cutoff for wfc and rho
    0                  Max angular momentum component
 1321                  Number of points in mesh
    2    1             Number of Wavefunctions, Number of Projectors
 Wavefunctions         nl  l   occ
                       0S  0  1.00
                       0P  1  0.00
</PP_HEADER>


<PP_MESH>
  <PP_R>
  1.11820875968E-04  1.12944694454E-04  1.14079807505E-04  1.15226328631E-04
  1.16384372487E-04  1.17554054876E-04  1.18735492769E-04  1.19928804310E-04
  1.21134108832E-04  1.22351526865E-04  1.23581180153E-04  1.24823191662E-04
  1.26077685594E-04  1.27344787400E-04  1.28624623791E-04  1.29917322751E-04
  1.31223013552E-04  1.32541826763E-04  1.33873894268E-04  1.35219349273E-04
  1.36578326327E-04  1.37950961326E-04  1.39337391537E-04  1.40737755603E-04
  1.42152193562E-04  1.43580846859E-04  1.45023858360E-04  1.46481372367E-04
  1.47953534634E-04  1.49440492378E-04  1.50942394296E-04  1.52459390578E-04
  1.53991632927E-04  1.55539274568E-04  1.57102470265E-04  1.58681376341E-04
  1.60276150686E-04  1.61886952780E-04  1.63513943704E-04  1.65157286159E-04
  1.66817144480E-04  1.68493684655E-04  1.70187074338E-04  1.71897482871E-04
  1.73625081295E-04  1.75370042372E-04  1.77132540599E-04  1.78912752228E-04
  1.80710855282E-04  1.82527029571E-04  1.84361456716E-04  1.86214320160E-04
  1.88085805191E-04  1.89976098959E-04  1.91885390496E-04  1.93813870731E-04
  1.95761732515E-04  1.97729170636E-04  1.99716381838E-04  2.01723564845E-04
  2.03750920377E-04  2.05798651170E-04  2.07866962000E-04  2.09956059699E-04
  2.12066153180E-04  2.14197453452E-04  2.16350173648E-04  2.18524529042E-04
  2.20720737071E-04  2.22939017357E-04  2.25179591731E-04  2.27442684252E-04
  2.29728521231E-04  2.32037331253E-04  2.34369345202E-04  2.36724796281E-04
  2.39103920036E-04  2.41506954383E-04  2.43934139627E-04  2.46385718488E-04
  2.48861936126E-04  2.51363040165E-04  2.53889280717E-04  2.56440910409E-04
  2.59018184406E-04  2.61621360437E-04  2.64250698822E-04  2.66906462497E-04
  2.69588917041E-04  2.72298330702E-04  2.75034974422E-04  2.77799121869E-04
  2.80591049460E-04  2.83411036389E-04  2.86259364658E-04  2.89136319102E-04
  2.92042187419E-04  2.94977260199E-04  2.97941830950E-04  3.00936196132E-04
  3.03960655185E-04  3.07015510556E-04  3.10101067735E-04  3.13217635279E-04
  3.16365524847E-04  3.19545051231E-04  3.22756532387E-04  3.26000289465E-04
  3.29276646844E-04  3.32585932161E-04  3.35928476350E-04  3.39304613665E-04
  3.42714681725E-04  3.46159021538E-04  3.49637977543E-04  3.53151897636E-04
  3.56701133213E-04  3.60286039201E-04  3.63906974093E-04  3.67564299986E-04
  3.71258382615E-04  3.74989591392E-04  3.78758299440E-04  3.82564883634E-04
  3.86409724635E-04  3.90293206930E-04  3.94215718872E-04  3.98177652714E-04
  4.02179404653E-04  4.06221374867E-04  4.10303967558E-04  4.14427590987E-04
  4.18592657521E-04  4.22799583669E-04  4.27048790128E-04  4.31340701822E-04
  4.35675747945E-04  4.40054362007E-04  4.44476981871E-04  4.48944049804E-04
  4.53456012516E-04  4.58013321207E-04  4.62616431612E-04  4.67265804046E-04
  4.71961903449E-04  4.76705199436E-04  4.81496166340E-04  4.86335283262E-04
  4.91223034118E-04  4.96159907686E-04  5.01146397659E-04  5.06183002689E-04
  5.11270226441E-04  5.16408577642E-04  5.21598570131E-04  5.26840722912E-04
  5.32135560204E-04  5.37483611496E-04  5.42885411596E-04  5.48341500690E-04
  5.53852424391E-04  5.59418733796E-04  5.65040985541E-04  5.70719741855E-04
  5.76455570619E-04  5.82249045420E-04  5.88100745611E-04  5.94011256367E-04
  5.99981168744E-04  6.06011079737E-04  6.12101592343E-04  6.18253315619E-04
  6.24466864741E-04  6.30742861070E-04  6.37081932211E-04  6.43484712076E-04
  6.49951840948E-04  6.56483965547E-04  6.63081739088E-04  6.69745821357E-04
  6.76476878765E-04  6.83275584425E-04  6.90142618213E-04  6.97078666838E-04
  7.04084423911E-04  7.11160590013E-04  7.18307872766E-04  7.25526986905E-04
  7.32818654348E-04  7.40183604266E-04  7.47622573162E-04  7.55136304938E-04
  7.62725550974E-04  7.70391070201E-04  7.78133629176E-04  7.85954002163E-04
  7.93852971206E-04  8.01831326207E-04  8.09889865008E-04  8.18029393471E-04
  8.26250725555E-04  8.34554683401E-04  8.42942097410E-04  8.51413806331E-04
  8.59970657342E-04  8.68613506136E-04  8.77343217004E-04  8.86160662925E-04
  8.95066725651E-04  9.04062295796E-04  9.13148272923E-04  9.22325565638E-04
  9.31595091679E-04  9.40957778005E-04  9.50414560893E-04  9.59966386029E-04
  9.69614208604E-04  9.79358993408E-04  9.89201714927E-04  9.99143357442E-04
  1.00918491513E-03  1.01932739214E-03  1.02957180275E-03  1.03991917139E-03
  1.05037053281E-03  1.06092693217E-03  1.07158942510E-03  1.08235907787E-03
  1.09323696745E-03  1.10422418163E-03  1.11532181916E-03  1.12653098979E-03
  1.13785281447E-03  1.14928842537E-03  1.16083896607E-03  1.17250559164E-03
  1.18428946874E-03  1.19619177578E-03  1.20821370299E-03  1.22035645258E-03
  1.23262123883E-03  1.24500928823E-03  1.25752183960E-03  1.27016014420E-03
  1.28292546587E-03  1.29581908116E-03  1.30884227944E-03  1.32199636303E-03
  1.33528264736E-03  1.34870246107E-03  1.36225714615E-03  1.37594805809E-03
  1.38977656597E-03  1.40374405267E-03  1.41785191494E-03  1.43210156358E-03
  1.44649442358E-03  1.46103193422E-03  1.47571554928E-03  1.49054673712E-03
  1.50552698087E-03  1.52065777858E-03  1.53594064333E-03  1.55137710343E-03
  1.56696870253E-03  1.58271699980E-03  1.59862357010E-03  1.61469000408E-03
  1.63091790841E-03  1.64730890589E-03  1.66386463564E-03  1.68058675323E-03
  1.69747693090E-03  1.71453685768E-03  1.73176823957E-03  1.74917279973E-03
  1.76675227862E-03  1.78450843422E-03  1.80244304215E-03  1.82055789588E-03
  1.83885480692E-03  1.85733560497E-03  1.87600213813E-03  1.89485627307E-03
  1.91389989522E-03  1.93313490895E-03  1.95256323778E-03  1.97218682456E-03
  1.99200763167E-03  2.01202764120E-03  2.03224885517E-03  2.05267329572E-03
  2.07330300531E-03  2.09414004693E-03  2.11518650430E-03  2.13644448209E-03
  2.15791610610E-03  2.17960352352E-03  2.20150890310E-03  2.22363443542E-03
  2.24598233303E-03  2.26855483074E-03  2.29135418583E-03  2.31438267825E-03
  2.33764261086E-03  2.36113630968E-03  2.38486612410E-03  2.40883442713E-03
  2.43304361560E-03  2.45749611046E-03  2.48219435697E-03  2.50714082500E-03
  2.53233800919E-03  2.55778842930E-03  2.58349463038E-03  2.60945918308E-03
  2.63568468386E-03  2.66217375532E-03  2.68892904637E-03  2.71595323256E-03
  2.74324901634E-03  2.77081912731E-03  2.79866632250E-03  2.82679338665E-03
  2.85520313250E-03  2.88389840104E-03  2.91288206182E-03  2.94215701324E-03
  2.97172618281E-03  3.00159252748E-03  3.03175903390E-03  3.06222871875E-03
  3.09300462902E-03  3.12408984234E-03  3.15548746724E-03  3.18720064351E-03
  3.21923254251E-03  3.25158636745E-03  3.28426535373E-03  3.31727276928E-03
  3.35061191488E-03  3.38428612446E-03  3.41829876547E-03  3.45265323920E-03
  3.48735298114E-03  3.52240146128E-03  3.55780218451E-03  3.59355869091E-03
  3.62967455618E-03  3.66615339194E-03  3.70299884608E-03  3.74021460320E-03
  3.77780438489E-03  3.81577195017E-03  3.85412109582E-03  3.89285565680E-03
  3.93197950658E-03  3.97149655760E-03  4.01141076157E-03  4.05172610997E-03
  4.09244663436E-03  4.13357640681E-03  4.17511954036E-03  4.21708018934E-03
  4.25946254985E-03  4.30227086016E-03  4.34550940115E-03  4.38918249669E-03
  4.43329451415E-03  4.47784986475E-03  4.52285300407E-03  4.56830843245E-03
  4.61422069549E-03  4.66059438445E-03  4.70743413672E-03  4.75474463633E-03
  4.80253061437E-03  4.85079684947E-03  4.89954816830E-03  4.94878944603E-03
  4.99852560683E-03  5.04876162435E-03  5.09950252224E-03  5.15075337464E-03
  5.20251930666E-03  5.25480549495E-03  5.30761716817E-03  5.36095960753E-03
  5.41483814732E-03  5.46925817543E-03  5.52422513392E-03  5.57974451953E-03
  5.63582188424E-03  5.69246283583E-03  5.74967303845E-03  5.80745821316E-03
  5.86582413854E-03  5.92477665122E-03  5.98432164650E-03  6.04446507893E-03
  6.10521296291E-03  6.16657137327E-03  6.22854644591E-03  6.29114437838E-03
  6.35437143054E-03  6.41823392513E-03  6.48273824846E-03  6.54789085102E-03
  6.61369824812E-03  6.68016702056E-03  6.74730381527E-03  6.81511534598E-03
  6.88360839390E-03  6.95278980840E-03  7.02266650768E-03  7.09324547946E-03
  7.16453378170E-03  7.23653854328E-03  7.30926696475E-03  7.38272631901E-03
  7.45692395206E-03  7.53186728371E-03  7.60756380836E-03  7.68402109574E-03
  7.76124679163E-03  7.83924861867E-03  7.91803437710E-03  7.99761194557E-03
  8.07798928190E-03  8.15917442388E-03  8.24117549011E-03  8.32400068076E-03
  8.40765827841E-03  8.49215664889E-03  8.57750424212E-03  8.66370959292E-03
  8.75078132190E-03  8.83872813630E-03  8.92755883088E-03  9.01728228878E-03
  9.10790748243E-03  9.19944347442E-03  9.29189941842E-03  9.38528456010E-03
  9.47960823806E-03  9.57487988475E-03  9.67110902740E-03  9.76830528901E-03
  9.86647838930E-03  9.96563814564E-03  1.00657944741E-02  1.01669573904E-02
  1.02691370109E-02  1.03723435537E-02  1.04765873395E-02  1.05818787927E-02
  1.06882284426E-02  1.07956469243E-02  1.09041449797E-02  1.10137334586E-02
  1.11244233201E-02  1.12362256332E-02  1.13491515782E-02  1.14632124478E-02
  1.15784196482E-02  1.16947847003E-02  1.18123192405E-02  1.19310350226E-02
  1.20509439180E-02  1.21720579179E-02  1.22943891337E-02  1.24179497987E-02
  1.25427522691E-02  1.26688090251E-02  1.27961326725E-02  1.29247359439E-02
  1.30546316997E-02  1.31858329295E-02  1.33183527536E-02  1.34522044240E-02
  1.35874013261E-02  1.37239569797E-02  1.38618850404E-02  1.40011993011E-02
  1.41419136935E-02  1.42840422890E-02  1.44275993007E-02  1.45725990843E-02
  1.47190561399E-02  1.48669851134E-02  1.50164007979E-02  1.51673181349E-02
  1.53197522163E-02  1.54737182858E-02  1.56292317400E-02  1.57863081304E-02
  1.59449631647E-02  1.61052127087E-02  1.62670727873E-02  1.64305595868E-02
  1.65956894560E-02  1.67624789079E-02  1.69309446216E-02  1.71011034440E-02
  1.72729723909E-02  1.74465686495E-02  1.76219095795E-02  1.77990127151E-02
  1.79778957668E-02  1.81585766231E-02  1.83410733521E-02  1.85254042038E-02
  1.87115876114E-02  1.88996421933E-02  1.90895867552E-02  1.92814402916E-02
  1.94752219882E-02  1.96709512231E-02  1.98686475696E-02  2.00683307975E-02
  2.02700208751E-02  2.04737379717E-02  2.06795024591E-02  2.08873349141E-02
  2.10972561199E-02  2.13092870689E-02  2.15234489644E-02  2.17397632227E-02
  2.19582514755E-02  2.21789355717E-02  2.24018375799E-02  2.26269797906E-02
  2.28543847181E-02  2.30840751031E-02  2.33160739149E-02  2.35504043535E-02
  2.37870898521E-02  2.40261540796E-02  2.42676209425E-02  2.45115145877E-02
  2.47578594048E-02  2.50066800284E-02  2.52580013409E-02  2.55118484746E-02
  2.57682468144E-02  2.60272220004E-02  2.62887999302E-02  2.65530067620E-02
  2.68198689165E-02  2.70894130803E-02  2.73616662080E-02  2.76366555251E-02
  2.79144085307E-02  2.81949530005E-02  2.84783169891E-02  2.87645288331E-02
  2.90536171540E-02  2.93456108608E-02  2.96405391531E-02  2.99384315241E-02
  3.02393177631E-02  3.05432279592E-02  3.08501925034E-02  3.11602420927E-02
  3.14734077321E-02  3.17897207385E-02  3.21092127435E-02  3.24319156965E-02
  3.27578618681E-02  3.30870838532E-02  3.34196145743E-02  3.37554872846E-02
  3.40947355718E-02  3.44373933610E-02  3.47834949183E-02  3.51330748540E-02
  3.54861681264E-02  3.58428100453E-02  3.62030362750E-02  3.65668828385E-02
  3.69343861208E-02  3.73055828724E-02  3.76805102135E-02  3.80592056369E-02
  3.84417070127E-02  3.88280525912E-02  3.92182810073E-02  3.96124312841E-02
  4.00105428372E-02  4.04126554778E-02  4.08188094177E-02  4.12290452725E-02
  4.16434040662E-02  4.20619272350E-02  4.24846566316E-02  4.29116345293E-02
  4.33429036261E-02  4.37785070495E-02  4.42184883600E-02  4.46628915563E-02
  4.51117610789E-02  4.55651418152E-02  4.60230791036E-02  4.64856187384E-02
  4.69528069737E-02  4.74246905288E-02  4.79013165926E-02  4.83827328279E-02
  4.88689873768E-02  4.93601288652E-02  4.98562064075E-02  5.03572696121E-02
  5.08633685856E-02  5.13745539384E-02  5.18908767893E-02  5.24123887712E-02
  5.29391420356E-02  5.34711892584E-02  5.40085836446E-02  5.45513789342E-02
  5.50996294072E-02  5.56533898890E-02  5.62127157562E-02  5.67776629418E-02
  5.73482879410E-02  5.79246478168E-02  5.85068002057E-02  5.90948033233E-02
  5.96887159705E-02  6.02885975390E-02  6.08945080176E-02  6.15065079977E-02
  6.21246586798E-02  6.27490218796E-02  6.33796600338E-02  6.40166362069E-02
  6.46600140970E-02  6.53098580423E-02  6.59662330279E-02  6.66292046917E-02
  6.72988393316E-02  6.79752039114E-02  6.86583660683E-02  6.93483941190E-02
  7.00453570669E-02  7.07493246089E-02  7.14603671423E-02  7.21785557720E-02
  7.29039623174E-02  7.36366593198E-02  7.43767200495E-02  7.51242185131E-02
  7.58792294613E-02  7.66418283956E-02  7.74120915766E-02  7.81900960313E-02
  7.89759195607E-02  7.97696407479E-02  8.05713389657E-02  8.13810943845E-02
  8.21989879805E-02  8.30251015439E-02  8.38595176866E-02  8.47023198509E-02
  8.55535923179E-02  8.64134202153E-02  8.72818895268E-02  8.81590870999E-02
  8.90451006553E-02  8.99400187949E-02  9.08439310113E-02  9.17569276966E-02
  9.26791001511E-02  9.36105405928E-02  9.45513421666E-02  9.55015989534E-02
  9.64614059797E-02  9.74308592270E-02  9.84100556413E-02  9.93990931433E-02
  1.00398070637E-01  1.01407088022E-01  1.02426246200E-01  1.03455647088E-01
  1.04495393628E-01  1.05545589793E-01  1.06606340605E-01  1.07677752141E-01
  1.08759931541E-01  1.09852987025E-01  1.10957027899E-01  1.12072164569E-01
  1.13198508548E-01  1.14336172473E-01  1.15485270110E-01  1.16645916370E-01
  1.17818227320E-01  1.19002320190E-01  1.20198313391E-01  1.21406326524E-01
  1.22626480390E-01  1.23858897007E-01  1.25103699617E-01  1.26361012701E-01
  1.27630961992E-01  1.28913674485E-01  1.30209278453E-01  1.31517903457E-01
  1.32839680362E-01  1.34174741345E-01  1.35523219914E-01  1.36885250917E-01
  1.38260970561E-01  1.39650516416E-01  1.41054027439E-01  1.42471643983E-01
  1.43903507810E-01  1.45349762107E-01  1.46810551502E-01  1.48286022074E-01
  1.49776321372E-01  1.51281598427E-01  1.52802003768E-01  1.54337689437E-01
  1.55888809003E-01  1.57455517580E-01  1.59037971840E-01  1.60636330030E-01
  1.62250751987E-01  1.63881399154E-01  1.65528434597E-01  1.67192023022E-01
  1.68872330789E-01  1.70569525929E-01  1.72283778164E-01  1.74015258920E-01
  1.75764141348E-01  1.77530600336E-01  1.79314812532E-01  1.81116956358E-01
  1.82937212031E-01  1.84775761578E-01  1.86632788855E-01  1.88508479567E-01
  1.90403021283E-01  1.92316603460E-01  1.94249417458E-01  1.96201656559E-01
  1.98173515990E-01  2.00165192937E-01  2.02176886571E-01  2.04208798061E-01
  2.06261130602E-01  2.08334089428E-01  2.10427881836E-01  2.12542717207E-01
  2.14678807028E-01  2.16836364908E-01  2.19015606605E-01  2.21216750045E-01
  2.23440015345E-01  2.25685624833E-01  2.27953803071E-01  2.30244776879E-01
  2.32558775357E-01  2.34896029906E-01  2.37256774254E-01  2.39641244477E-01
  2.42049679025E-01  2.44482318741E-01  2.46939406894E-01  2.49421189193E-01
  2.51927913819E-01  2.54459831446E-01  2.57017195268E-01  2.59600261024E-01
  2.62209287022E-01  2.64844534168E-01  2.67506265987E-01  2.70194748657E-01
  2.72910251026E-01  2.75653044648E-01  2.78423403804E-01  2.81221605532E-01
  2.84047929655E-01  2.86902658808E-01  2.89786078466E-01  2.92698476974E-01
  2.95640145572E-01  2.98611378432E-01  3.01612472679E-01  3.04643728424E-01
  3.07705448796E-01  3.10797939969E-01  3.13921511195E-01  3.17076474834E-01
  3.20263146384E-01  3.23481844516E-01  3.26732891102E-01  3.30016611250E-01
  3.33333333333E-01  3.36683389028E-01  3.40067113342E-01  3.43484844651E-01
  3.46936924731E-01  3.50423698792E-01  3.53945515515E-01  3.57502727085E-01
  3.61095689225E-01  3.64724761235E-01  3.68390306025E-01  3.72092690153E-01
  3.75832283860E-01  3.79609461108E-01  3.83424599619E-01  3.87278080909E-01
  3.91170290331E-01  3.95101617107E-01  3.99072454374E-01  4.03083199219E-01
  4.07134252720E-01  4.11226019986E-01  4.15358910196E-01  4.19533336643E-01
  4.23749716774E-01  4.28008472229E-01  4.32310028889E-01  4.36654816911E-01
  4.41043270779E-01  4.45475829342E-01  4.49952935859E-01  4.54475038044E-01
  4.59042588112E-01  4.63656042821E-01  4.68315863521E-01  4.73022516198E-01
  4.77776471520E-01  4.82578204888E-01  4.87428196478E-01  4.92326931294E-01
  4.97274899214E-01  5.02272595038E-01  5.07320518540E-01  5.12419174516E-01
  5.17569072837E-01  5.22770728497E-01  5.28024661665E-01  5.33331397739E-01
  5.38691467398E-01  5.44105406652E-01  5.49573756900E-01  5.55097064982E-01
  5.60675883233E-01  5.66310769540E-01  5.72002287395E-01  5.77751005956E-01
  5.83557500099E-01  5.89422350478E-01  5.95346143583E-01  6.01329471799E-01
  6.07372933464E-01  6.13477132927E-01  6.19642680615E-01  6.25870193088E-01
  6.32160293102E-01  6.38513609671E-01  6.44930778134E-01  6.51412440212E-01
  6.57959244077E-01  6.64571844414E-01  6.71250902490E-01  6.77997086216E-01
  6.84811070215E-01  6.91693535891E-01  6.98645171498E-01  7.05666672204E-01
  7.12758740166E-01  7.19922084595E-01  7.27157421833E-01  7.34465475419E-01
  7.41846976164E-01  7.49302662225E-01  7.56833279177E-01  7.64439580088E-01
  7.72122325594E-01  7.79882283975E-01  7.87720231235E-01  7.95636951175E-01
  8.03633235472E-01  8.11709883763E-01  8.19867703719E-01  8.28107511128E-01
  8.36430129979E-01  8.44836392539E-01  8.53327139443E-01  8.61903219772E-01
  8.70565491141E-01  8.79314819785E-01  8.88152080643E-01  8.97078157450E-01
  9.06093942820E-01  9.15200338339E-01  9.24398254655E-01  9.33688611566E-01
  9.43072338117E-01  9.52550372688E-01  9.62123663089E-01  9.71793166659E-01
  9.81559850355E-01  9.91424690854E-01  1.00138867465E+00  1.01145279815E+00
  1.02161806776E+00  1.03188550004E+00  1.04225612173E+00  1.05273096990E+00
  1.06331109204E+00  1.07399754618E+00  1.08479140096E+00  1.09569373579E+00
  1.10670564091E+00  1.11782821752E+00  1.12906257787E+00  1.14040984543E+00
  1.15187115492E+00  1.16344765249E+00  1.17514049579E+00  1.18695085412E+00
  1.19887990852E+00  1.21092885192E+00  1.22309888921E+00  1.23539123740E+00
  1.24780712575E+00  1.26034779586E+00  1.27301450179E+00  1.28580851023E+00
  1.29873110060E+00  1.31178356516E+00  1.32496720916E+00  1.33828335100E+00
  1.35173332228E+00  1.36531846802E+00  1.37904014675E+00  1.39289973064E+00
  1.40689860567E+00  1.42103817172E+00  1.43531984278E+00  1.44974504702E+00
  1.46431522697E+00  1.47903183967E+00  1.49389635678E+00  1.50891026477E+00
  1.52407506505E+00  1.53939227410E+00  1.55486342366E+00  1.57049006086E+00
  1.58627374838E+00  1.60221606459E+00  1.61831860375E+00  1.63458297611E+00
  1.65101080813E+00  1.66760374261E+00  1.68436343885E+00  1.70129157285E+00
  1.71838983741E+00  1.73565994239E+00  1.75310361482E+00  1.77072259906E+00
  1.78851865704E+00  1.80649356838E+00  1.82464913058E+00  1.84298715921E+00
  1.86150948809E+00  1.88021796948E+00  1.89911447422E+00  1.91820089200E+00
  1.93747913147E+00  1.95695112046E+00  1.97661880620E+00  1.99648415546E+00
  2.01654915480E+00  2.03681581074E+00  2.05728614996E+00  2.07796221951E+00
  2.09884608701E+00  2.11993984087E+00  2.14124559048E+00  2.16276546643E+00
  2.18450162073E+00  2.20645622701E+00  2.22863148076E+00  2.25102959951E+00
  2.27365282310E+00  2.29650341386E+00  2.31958365688E+00  2.34289586020E+00
  2.36644235505E+00  2.39022549612E+00  2.41424766172E+00  2.43851125410E+00
  2.46301869964E+00  2.48777244911E+00  2.51277497789E+00  2.53802878626E+00
  2.56353639963E+00  2.58930036877E+00  2.61532327011E+00  2.64160770595E+00
  2.66815630477E+00  2.69497172144E+00  2.72205663752E+00  2.74941376154E+00
  2.77704582923E+00  2.80495560381E+00  2.83314587630E+00  2.86161946573E+00
  2.89037921949E+00  2.91942801358E+00  2.94876875291E+00  2.97840437157E+00
  3.00833783314E+00  3.03857213101E+00  3.06911028863E+00  3.09995535983E+00
  3.13111042915E+00  3.16257861212E+00  3.19436305559E+00  3.22646693802E+00
  3.25889346984E+00  3.29164589372E+00  3.32472748494E+00  3.35814155167E+00
  3.39189143536E+00  3.42598051101E+00  3.46041218758E+00  3.49518990824E+00
  3.53031715081E+00  3.56579742804E+00  3.60163428798E+00  3.63783131435E+00
  3.67439212688E+00  3.71132038169E+00  3.74861977163E+00  3.78629402667E+00
  3.82434691426E+00  3.86278223974E+00  3.90160384666E+00  3.94081561722E+00
  3.98042147262E+00  4.02042537348E+00  4.06083132023E+00  4.10164335350E+00
  4.14286555453E+00  4.18450204556E+00  4.22655699028E+00  4.26903459422E+00
  4.31193910518E+00  4.35527481364E+00  4.39904605322E+00  4.44325720107E+00
  4.48791267833E+00  4.53301695061E+00  4.57857452836E+00  4.62458996738E+00
  4.67106786924E+00  4.71801288179E+00  4.76542969956E+00  4.81332306427E+00
  4.86169776529E+00  4.91055864015E+00  4.95991057496E+00  5.00975850496E+00
  5.06010741498E+00  5.11096233997E+00  5.16232836545E+00  5.21421062806E+00
  5.26661431609E+00  5.31954466993E+00  5.37300698268E+00  5.42700660060E+00
  5.48154892370E+00  5.53663940626E+00  5.59228355738E+00  5.64848694151E+00
  5.70525517905E+00  5.76259394686E+00  5.82050897886E+00  5.87900606661E+00
  5.93809105987E+00  5.99776986718E+00  6.05804845648E+00  6.11893285567E+00
  6.18042915325E+00  6.24254349889E+00  6.30528210409E+00  6.36865124274E+00
  6.43265725183E+00  6.49730653201E+00  6.56260554825E+00  6.62856083052E+00
  6.69517897440E+00  6.76246664175E+00  6.83043056140E+00  6.89907752980E+00
  6.96841441170E+00  7.03844814085E+00  7.10918572068E+00  7.18063422500E+00
  7.25280079873E+00  7.32569265859E+00  7.39931709381E+00  7.47368146692E+00
  7.54879321439E+00  7.62465984748E+00  7.70128895291E+00  7.77868819365E+00
  7.85686530969E+00  7.93582811881E+00  8.01558451735E+00  8.09614248103E+00
  8.17751006570E+00  8.25969540820E+00  8.34270672711E+00  8.42655232365E+00
  8.51124058245E+00  8.59677997240E+00  8.68317904751E+00  8.77044644776E+00
  8.85859089996E+00  8.94762121863E+00  9.03754630689E+00  9.12837515730E+00
  9.22011685284E+00  9.31278056775E+00  9.40637556847E+00  9.50091121459E+00
  9.59639695975E+00  9.69284235260E+00  9.79025703776E+00  9.88865075679E+00
  9.98803334913E+00  1.00884147531E+01  1.01898050070E+01  1.02922142499E+01
  1.03956527228E+01  1.05001307696E+01  1.06056588382E+01  1.07122474816E+01
  1.08199073586E+01  1.09286492354E+01  1.10384839862E+01  1.11494225946E+01
  1.12614761546E+01  1.13746558716E+01  1.14889730636E+01  1.16044391625E+01
  1.17210657150E+01  1.18388643839E+01  1.19578469490E+01  1.20780253088E+01
  1.21994114812E+01  1.23220176049E+01  1.24458559407E+01  1.25709388724E+01
  1.26972789085E+01  1.28248886830E+01  1.29537809571E+01  1.30839686201E+01
  1.32154646909E+01  1.33482823191E+01  1.34824347867E+01  1.36179355090E+01
  1.37547980362E+01  1.38930360547E+01  1.40326633883E+01  1.41736940000E+01
  1.43161419929E+01  1.44600216120E+01  1.46053472452E+01  1.47521334253E+01
  1.49003948311E+01  1.50501462888E+01  1.52014027736E+01  1.53541794114E+01
  1.55084914799E+01  1.56643544105E+01  1.58217837896E+01  1.59807953603E+01
  1.61414050238E+01  1.63036288412E+01  1.64674830352E+01  1.66329839911E+01
  1.68001482594E+01  1.69689925564E+01  1.71395337668E+01  1.73117889449E+01
  1.74857753164E+01  1.76615102799E+01  1.78390114092E+01  1.80182964544E+01
  1.81993833444E+01  1.83822901878E+01  1.85670352756E+01  1.87536370824E+01
  1.89421142685E+01  1.91324856818E+01  1.93247703597E+01  1.95189875306E+01
  1.97151566166E+01  1.99132972347E+01  2.01134291991E+01  2.03155725232E+01
  2.05197474215E+01  2.07259743116E+01  2.09342738164E+01  2.11446667660E+01
  2.13571742000E+01  2.15718173691E+01  2.17886177380E+01  2.20075969868E+01
  2.22287770136E+01  2.24521799367E+01  2.26778280965E+01  2.29057440579E+01
  2.31359506129E+01  2.33684707822E+01  2.36033278181E+01  2.38405452064E+01
  2.40801466691E+01  2.43221561665E+01  2.45665978999E+01  2.48134963134E+01
  2.50628760973E+01  2.53147621897E+01  2.55691797794E+01  2.58261543084E+01
  2.60857114744E+01  2.63478772332E+01  2.66126778017E+01  2.68801396602E+01
  2.71502895550E+01  2.74231545014E+01  2.76987617861E+01  2.79771389701E+01
  2.82583138913E+01  2.85423146674E+01  2.88291696988E+01  2.91189076711E+01
  2.94115575586E+01  2.97071486262E+01  3.00057104335E+01  3.03072728368E+01
  3.06118659927E+01  3.09195203607E+01  3.12302667065E+01  3.15441361050E+01
  3.18611599434E+01  3.21813699243E+01  3.25047980690E+01  3.28314767206E+01
  3.31614385473E+01  3.34947165455E+01  3.38313440432E+01  3.41713547035E+01
  3.45147825278E+01  3.48616618590E+01  3.52120273856E+01  3.55659141442E+01
  3.59233575238E+01  3.62843932691E+01  3.66490574840E+01  3.70173866352E+01
  3.73894175559E+01  3.77651874496E+01  3.81447338934E+01  3.85280948424E+01
  3.89153086330E+01  3.93064139869E+01  3.97014500149E+01  4.01004562211E+01
  4.05034725062E+01  4.09105391724E+01  4.13216969266E+01  4.17369868849E+01
  4.21564505767E+01  4.25801299487E+01  4.30080673691E+01  4.34403056322E+01
  4.38768879619E+01  4.43178580171E+01  4.47632598950E+01  4.52131381362E+01
  4.56675377288E+01  4.61265041133E+01  4.65900831867E+01  4.70583213072E+01
  4.75312652990E+01  4.80089624570E+01  4.84914605512E+01  4.89788078319E+01
  4.94710530342E+01  4.99682453830E+01  5.04704345980E+01  5.09776708985E+01
  5.14900050086E+01  5.20074881621E+01  5.25301721078E+01  5.30581091144E+01
  5.35913519762E+01  5.41299540178E+01  5.46739691000E+01  5.52234516246E+01
  5.57784565404E+01  5.63390393483E+01  5.69052561071E+01  5.74771634390E+01
  5.80548185350E+01  5.86382791614E+01  5.92276036645E+01  5.98228509773E+01
  6.04240806251E+01
  </PP_R>
  <PP_RAB>
  1.11820875968E-06  1.12944694454E-06  1.14079807505E-06  1.15226328631E-06
  1.16384372487E-06  1.17554054876E-06  1.18735492769E-06  1.19928804310E-06
  1.21134108832E-06  1.22351526865E-06  1.23581180153E-06  1.24823191662E-06
  1.26077685594E-06  1.27344787400E-06  1.28624623791E-06  1.29917322751E-06
  1.31223013552E-06  1.32541826763E-06  1.33873894268E-06  1.35219349273E-06
  1.36578326327E-06  1.37950961326E-06  1.39337391537E-06  1.40737755603E-06
  1.42152193562E-06  1.43580846859E-06  1.45023858360E-06  1.46481372367E-06
  1.47953534634E-06  1.49440492378E-06  1.50942394296E-06  1.52459390578E-06
  1.53991632927E-06  1.55539274568E-06  1.57102470265E-06  1.58681376341E-06
  1.60276150686E-06  1.61886952780E-06  1.63513943704E-06  1.65157286159E-06
  1.66817144480E-06  1.68493684655E-06  1.70187074338E-06  1.71897482871E-06
  1.73625081295E-06  1.75370042372E-06  1.77132540599E-06  1.78912752228E-06
  1.80710855282E-06  1.82527029571E-06  1.84361456716E-06  1.86214320160E-06
  1.88085805191E-06  1.89976098959E-06  1.91885390496E-06  1.93813870731E-06
  1.95761732515E-06  1.97729170636E-06  1.99716381838E-06  2.01723564845E-06
  2.03750920377E-06  2.05798651170E-06  2.07866962000E-06  2.09956059699E-06
  2.12066153180E-06  2.14197453452E-06  2.16350173648E-06  2.18524529042E-06
  2.20720737071E-06  2.22939017357E-06  2.25179591731E-06  2.27442684252E-06
  2.29728521231E-06  2.32037331253E-06  2.34369345202E-06  2.36724796281E-06
  2.39103920036E-06  2.41506954383E-06  2.43934139627E-06  2.46385718488E-06
  2.48861936126E-06  2.51363040165E-06  2.53889280717E-06  2.56440910409E-06
  2.59018184406E-06  2.61621360437E-06  2.64250698822E-06  2.66906462497E-06
  2.69588917041E-06  2.72298330702E-06  2.75034974422E-06  2.77799121869E-06
  2.80591049460E-06  2.83411036389E-06  2.86259364658E-06  2.89136319102E-06
  2.92042187419E-06  2.94977260199E-06  2.97941830950E-06  3.00936196132E-06
  3.03960655185E-06  3.07015510556E-06  3.10101067735E-06  3.13217635279E-06
  3.16365524847E-06  3.19545051231E-06  3.22756532387E-06  3.26000289465E-06
  3.29276646844E-06  3.32585932161E-06  3.35928476350E-06  3.39304613665E-06
  3.42714681725E-06  3.46159021538E-06  3.49637977543E-06  3.53151897636E-06
  3.56701133213E-06  3.60286039201E-06  3.63906974093E-06  3.67564299986E-06
  3.71258382615E-06  3.74989591392E-06  3.78758299440E-06  3.82564883634E-06
  3.86409724635E-06  3.90293206930E-06  3.94215718872E-06  3.98177652714E-06
  4.02179404653E-06  4.06221374867E-06  4.10303967558E-06  4.14427590987E-06
  4.18592657521E-06  4.22799583669E-06  4.27048790128E-06  4.31340701822E-06
  4.35675747945E-06  4.40054362007E-06  4.44476981871E-06  4.48944049804E-06
  4.53456012516E-06  4.58013321207E-06  4.62616431612E-06  4.67265804046E-06
  4.71961903449E-06  4.76705199436E-06  4.81496166340E-06  4.86335283262E-06
  4.91223034118E-06  4.96159907686E-06  5.01146397659E-06  5.06183002689E-06
  5.11270226441E-06  5.16408577642E-06  5.21598570131E-06  5.26840722912E-06
  5.32135560204E-06  5.37483611496E-06  5.42885411596E-06  5.48341500690E-06
  5.53852424391E-06  5.59418733796E-06  5.65040985541E-06  5.70719741855E-06
  5.76455570619E-06  5.82249045420E-06  5.88100745611E-06  5.94011256367E-06
  5.99981168744E-06  6.06011079737E-06  6.12101592343E-06  6.18253315619E-06