<PP_INFO>
Generated using Vanderbilt code, version   7  3  2                              
Author: Yi Yao    Generation date:    0    0    0                               
Automatically converted from original format                                    
    0        The Pseudo was generated with a Non-Relativistic Calculation
nl pn  l   occ               Rcut            Rcut US             E pseu
0S  0  0  2.00      0.00000000000      0.00000000000      0.00000000000
0P  0  1  3.00      0.00000000000      0.00000000000      0.00000000000
</PP_INFO>


<PP_HEADER>
   0                   Version Number
   N                   Element
   NC                  Norm - Conserving pseudopotential
    F                  Nonlinear Core Correction
 SLA  PW   SCAN SCAN   SCAN Exchange-Correlation functional
    5.00000000000      Z valence
    0.00000000000      Total energy
    0.00000    0.00000 Suggested cutoff for wfc and rho
    0                  Max angular momentum component
 1405                  Number of points in mesh
    2    1             Number of Wavefunctions, Number of Projectors
 Wavefunctions         nl  l   occ
                       0S  0  2.00
                       0P  1  3.00
</PP_HEADER>


<PP_MESH>
  <PP_R>
  4.79232325575E-05  4.84048690519E-05  4.88913460736E-05  4.93827122706E-05
  4.98790167800E-05  5.03803092326E-05  5.08866397581E-05  5.13980589901E-05
  5.19146180707E-05  5.24363686564E-05  5.29633629227E-05  5.34956535694E-05
  5.40332938261E-05  5.45763374571E-05  5.51248387674E-05  5.56788526075E-05
  5.62384343793E-05  5.68036400414E-05  5.73745261148E-05  5.79511496886E-05
  5.85335684257E-05  5.91218405684E-05  5.97160249444E-05  6.03161809727E-05
  6.09223686694E-05  6.15346486537E-05  6.21530821541E-05  6.27777310145E-05
  6.34086577004E-05  6.40459253049E-05  6.46895975553E-05  6.53397388193E-05
  6.59964141117E-05  6.66596891004E-05  6.73296301137E-05  6.80063041460E-05
  6.86897788655E-05  6.93801226201E-05  7.00774044447E-05  7.07816940682E-05
  7.14930619201E-05  7.22115791377E-05  7.29373175735E-05  7.36703498018E-05
  7.44107491264E-05  7.51585895880E-05  7.59139459712E-05  7.66768938122E-05
  7.74475094065E-05  7.82258698163E-05  7.90120528783E-05  7.98061372114E-05
  8.06082022247E-05  8.14183281254E-05  8.22365959268E-05  8.30630874563E-05
  8.38978853637E-05  8.47410731296E-05  8.55927350735E-05  8.64529563622E-05
  8.73218230185E-05  8.81994219299E-05  8.90858408571E-05  8.99811684425E-05
  9.08854942198E-05  9.17989086222E-05  9.27215029920E-05  9.36533695894E-05
  9.45946016018E-05  9.55452931531E-05  9.65055393134E-05  9.74754361081E-05
  9.84550805275E-05  9.94445705371E-05  1.00444005087E-04  1.01453484120E-04
  1.02473108587E-04  1.03502980450E-04  1.04543202697E-04  1.05593879352E-04
  1.06655115482E-04  1.07727017213E-04  1.08809691736E-04  1.09903247318E-04
  1.11007793317E-04  1.12123440187E-04  1.13250299495E-04  1.14388483927E-04
  1.15538107303E-04  1.16699284586E-04  1.17872131895E-04  1.19056766515E-04
  1.20253306911E-04  1.21461872738E-04  1.22682584853E-04  1.23915565330E-04
  1.25160937465E-04  1.26418825799E-04  1.27689356121E-04  1.28972655485E-04
  1.30268852222E-04  1.31578075953E-04  1.32900457601E-04  1.34236129405E-04
  1.35585224934E-04  1.36947879099E-04  1.38324228166E-04  1.39714409771E-04
  1.41118562933E-04  1.42536828069E-04  1.43969347007E-04  1.45416262999E-04
  1.46877720739E-04  1.48353866374E-04  1.49844847518E-04  1.51350813273E-04
  1.52871914234E-04  1.54408302515E-04  1.55960131754E-04  1.57527557137E-04
  1.59110735406E-04  1.60709824882E-04  1.62324985474E-04  1.63956378700E-04
  1.65604167701E-04  1.67268517256E-04  1.68949593802E-04  1.70647565449E-04
  1.72362601994E-04  1.74094874943E-04  1.75844557525E-04  1.77611824709E-04
  1.79396853223E-04  1.81199821572E-04  1.83020910055E-04  1.84860300781E-04
  1.86718177691E-04  1.88594726574E-04  1.90490135088E-04  1.92404592773E-04
  1.94338291078E-04  1.96291423374E-04  1.98264184977E-04  2.00256773162E-04
  2.02269387192E-04  2.04302228330E-04  2.06355499860E-04  2.08429407112E-04
  2.10524157479E-04  2.12639960437E-04  2.14777027568E-04  2.16935572581E-04
  2.19115811332E-04  2.21317961847E-04  2.23542244342E-04  2.25788881248E-04
  2.28058097230E-04  2.30350119212E-04  2.32665176398E-04  2.35003500296E-04
  2.37365324739E-04  2.39750885913E-04  2.42160422375E-04  2.44594175081E-04
  2.47052387408E-04  2.49535305180E-04  2.52043176691E-04  2.54576252729E-04
  2.57134786604E-04  2.59719034173E-04  2.62329253861E-04  2.64965706694E-04
  2.67628656317E-04  2.70318369030E-04  2.73035113805E-04  2.75779162318E-04
  2.78550788978E-04  2.81350270949E-04  2.84177888181E-04  2.87033923439E-04
  2.89918662328E-04  2.92832393325E-04  2.95775407806E-04  2.98748000074E-04
  3.01750467390E-04  3.04783110005E-04  3.07846231185E-04  3.10940137245E-04
  3.14065137578E-04  3.17221544685E-04  3.20409674212E-04  3.23629844973E-04
  3.26882378989E-04  3.30167601515E-04  3.33485841076E-04  3.36837429499E-04
  3.40222701945E-04  3.43641996946E-04  3.47095656432E-04  3.50584025773E-04
  3.54107453809E-04  3.57666292886E-04  3.61260898890E-04  3.64891631285E-04
  3.68558853147E-04  3.72262931201E-04  3.76004235859E-04  3.79783141254E-04
  3.83600025279E-04  3.87455269627E-04  3.91349259824E-04  3.95282385274E-04
  3.99255039291E-04  4.03267619145E-04  4.07320526097E-04  4.11414165441E-04
  4.15548946545E-04  4.19725282889E-04  4.23943592112E-04  4.28204296047E-04
  4.32507820768E-04  4.36854596632E-04  4.41245058320E-04  4.45679644881E-04
  4.50158799778E-04  4.54682970930E-04  4.59252610758E-04  4.63868176230E-04
  4.68530128906E-04  4.73238934986E-04  4.77995065353E-04  4.82798995625E-04
  4.87651206199E-04  4.92552182300E-04  4.97502414030E-04  5.02502396416E-04
  5.07552629460E-04  5.12653618190E-04  5.17805872709E-04  5.23009908247E-04
  5.28266245212E-04  5.33575409241E-04  5.38937931256E-04  5.44354347513E-04
  5.49825199659E-04  5.55351034782E-04  5.60932405472E-04  5.66569869870E-04
  5.72263991727E-04  5.78015340460E-04  5.83824491209E-04  5.89692024894E-04
  5.95618528272E-04  6.01604594000E-04  6.07650820688E-04  6.13757812965E-04
  6.19926181534E-04  6.26156543238E-04  6.32449521119E-04  6.38805744478E-04
  6.45225848945E-04  6.51710476534E-04  6.58260275713E-04  6.64875901469E-04
  6.71558015369E-04  6.78307285630E-04  6.85124387185E-04  6.92010001750E-04
  6.98964817891E-04  7.05989531097E-04  7.13084843844E-04  7.20251465670E-04
  7.27490113243E-04  7.34801510433E-04  7.42186388386E-04  7.49645485597E-04
  7.57179547981E-04  7.64789328951E-04  7.72475589492E-04  7.80239098234E-04
  7.88080631537E-04  7.96000973560E-04  8.04000916343E-04  8.12081259889E-04
  8.20242812236E-04  8.28486389549E-04  8.36812816191E-04  8.45222924812E-04
  8.53717556429E-04  8.62297560514E-04  8.70963795074E-04  8.79717126738E-04
  8.88558430849E-04  8.97488591543E-04  9.06508501844E-04  9.15619063751E-04
  9.24821188327E-04  9.34115795793E-04  9.43503815616E-04  9.52986186608E-04
  9.62563857012E-04  9.72237784604E-04  9.82008936785E-04  9.91878290678E-04
  1.00184683323E-03  1.01191556129E-03  1.02208548176E-03  1.03235761163E-03
  1.04273297811E-03  1.05321261877E-03  1.06379758156E-03  1.07448892500E-03
  1.08528771823E-03  1.09619504113E-03  1.10721198445E-03  1.11833964989E-03
  1.12957915023E-03  1.14093160942E-03  1.15239816273E-03  1.16397995681E-03
  1.17567814986E-03  1.18749391170E-03  1.19942842393E-03  1.21148287999E-03
  1.22365848536E-03  1.23595645759E-03  1.24837802650E-03  1.26092443425E-03
  1.27359693549E-03  1.28639679749E-03  1.29932530024E-03  1.31238373661E-03
  1.32557341244E-03  1.33889564672E-03  1.35235177167E-03  1.36594313293E-03
  1.37967108965E-03  1.39353701462E-03  1.40754229446E-03  1.42168832969E-03
  1.43597653495E-03  1.45040833905E-03  1.46498518520E-03  1.47970853109E-03
  1.49457984906E-03  1.50960062626E-03  1.52477236479E-03  1.54009658182E-03
  1.55557480979E-03  1.57120859654E-03  1.58699950546E-03  1.60294911566E-03
  1.61905902210E-03  1.63533083579E-03  1.65176618392E-03  1.66836671006E-03
  1.68513407425E-03  1.70206995326E-03  1.71917604067E-03  1.73645404713E-03
  1.75390570044E-03  1.77153274578E-03  1.78933694587E-03  1.80732008114E-03
  1.82548394993E-03  1.84383036864E-03  1.86236117192E-03  1.88107821287E-03
  1.89998336321E-03  1.91907851346E-03  1.93836557317E-03  1.95784647105E-03
  1.97752315521E-03  1.99739759333E-03  2.01747177288E-03  2.03774770129E-03
  2.05822740616E-03  2.07891293549E-03  2.09980635784E-03  2.12090976258E-03
  2.14222526007E-03  2.16375498186E-03  2.18550108096E-03  2.20746573199E-03
  2.22965113143E-03  2.25205949784E-03  2.27469307207E-03  2.29755411751E-03
  2.32064492028E-03  2.34396778947E-03  2.36752505739E-03  2.39131907980E-03
  2.41535223610E-03  2.43962692964E-03  2.46414558791E-03  2.48891066278E-03
  2.51392463080E-03  2.53918999338E-03  2.56470927707E-03  2.59048503383E-03
  2.61651984125E-03  2.64281630283E-03  2.66937704825E-03  2.69620473359E-03
  2.72330204166E-03  2.75067168220E-03  2.77831639220E-03  2.80623893615E-03
  2.83444210634E-03  2.86292872310E-03  2.89170163511E-03  2.92076371971E-03
  2.95011788310E-03  2.97976706074E-03  3.00971421758E-03  3.03996234834E-03
  3.07051447787E-03  3.10137366141E-03  3.13254298489E-03  3.16402556529E-03
  3.19582455088E-03  3.22794312159E-03  3.26038448930E-03  3.29315189818E-03
  3.32624862499E-03  3.35967797943E-03  3.39344330447E-03  3.42754797667E-03
  3.46199540653E-03  3.49678903881E-03  3.53193235291E-03  3.56742886318E-03
  3.60328211932E-03  3.63949570667E-03  3.67607324662E-03  3.71301839697E-03
  3.75033485224E-03  3.78802634413E-03  3.82609664181E-03  3.86454955234E-03
  3.90338892104E-03  3.94261863189E-03  3.98224260789E-03  4.02226481147E-03
  4.06268924488E-03  4.10351995061E-03  4.14476101174E-03  4.18641655243E-03
  4.22849073827E-03  4.27098777670E-03  4.31391191747E-03  4.35726745303E-03
  4.40105871896E-03  4.44529009444E-03  4.48996600262E-03  4.53509091115E-03
  4.58066933255E-03  4.62670582470E-03  4.67320499129E-03  4.72017148227E-03
  4.76760999433E-03  4.81552527137E-03  4.86392210494E-03  4.91280533478E-03
  4.96217984925E-03  5.01205058584E-03  5.06242253166E-03  5.11330072395E-03
  5.16469025058E-03  5.21659625053E-03  5.26902391446E-03  5.32197848517E-03
  5.37546525817E-03  5.42948958217E-03  5.48405685965E-03  5.53917254739E-03
  5.59484215700E-03  5.65107125549E-03  5.70786546581E-03  5.76523046743E-03
  5.82317199691E-03  5.88169584844E-03  5.94080787445E-03  6.00051398621E-03
  6.06082015436E-03  6.12173240958E-03  6.18325684314E-03  6.24539960754E-03
  6.30816691710E-03  6.37156504861E-03  6.43560034194E-03  6.50027920066E-03
  6.56560809272E-03  6.63159355106E-03  6.69824217428E-03  6.76556062731E-03
  6.83355564203E-03  6.90223401801E-03  6.97160262314E-03  7.04166839435E-03
  7.11243833827E-03  7.18391953194E-03  7.25611912356E-03  7.32904433313E-03
  7.40270245325E-03  7.47710084978E-03  7.55224696262E-03  7.62814830646E-03
  7.70481247148E-03  7.78224712417E-03  7.86046000806E-03  7.93945894450E-03
  8.01925183345E-03  8.09984665426E-03  8.18125146650E-03  8.26347441069E-03
  8.34652370921E-03  8.43040766706E-03  8.51513467271E-03  8.60071319891E-03
  8.68715180360E-03  8.77445913071E-03  8.86264391105E-03  8.95171496316E-03
  9.04168119423E-03  9.13255160096E-03  9.22433527045E-03  9.31704138116E-03
  9.41067920377E-03  9.50525810215E-03  9.60078753425E-03  9.69727705311E-03
  9.79473630775E-03  9.89317504419E-03  9.99260310638E-03  1.00930304372E-02
  1.01944670795E-02  1.02969231770E-02  1.04004089753E-02  1.05049348233E-02
  1.06105111735E-02  1.07171485836E-02  1.08248577175E-02  1.09336493463E-02
  1.10435343490E-02  1.11545237145E-02  1.12666285415E-02  1.13798600408E-02
  1.14942295356E-02  1.16097484630E-02  1.17264283748E-02  1.18442809393E-02
  1.19633179417E-02  1.20835512859E-02  1.22049929953E-02  1.23276552142E-02
  1.24515502089E-02  1.25766903689E-02  1.27030882085E-02  1.28307563675E-02
  1.29597076128E-02  1.30899548396E-02  1.32215110729E-02  1.33543894683E-02
  1.34886033138E-02  1.36241660308E-02  1.37610911758E-02  1.38993924414E-02
  1.40390836578E-02  1.41801787942E-02  1.43226919604E-02  1.44666374077E-02
  1.46120295308E-02  1.47588828690E-02  1.49072121078E-02  1.50570320803E-02
  1.52083577685E-02  1.53612043051E-02  1.55155869750E-02  1.56715212165E-02
  1.58290226232E-02  1.59881069453E-02  1.61487900915E-02  1.63110881301E-02
  1.64750172912E-02  1.66405939676E-02  1.68078347174E-02  1.69767562646E-02
  1.71473755016E-02  1.73197094905E-02  1.74937754647E-02  1.76695908311E-02
  1.78471731712E-02  1.80265402436E-02  1.82077099850E-02  1.83907005125E-02
  1.85755301255E-02  1.87622173069E-02  1.89507807257E-02  1.91412392384E-02
  1.93336118909E-02  1.95279179208E-02  1.97241767587E-02  1.99224080307E-02
  2.01226315601E-02  2.03248673695E-02  2.05291356825E-02  2.07354569262E-02
  2.09438517329E-02  2.11543409422E-02  2.13669456032E-02  2.15816869766E-02
  2.17985865367E-02  2.20176659736E-02  2.22389471954E-02  2.24624523305E-02
  2.26882037296E-02  2.29162239679E-02  2.31465358477E-02  2.33791624004E-02
  2.36141268888E-02  2.38514528096E-02  2.40911638955E-02  2.43332841179E-02
  2.45778376890E-02  2.48248490643E-02  2.50743429453E-02  2.53263442814E-02
  2.55808782731E-02  2.58379703739E-02  2.60976462932E-02  2.63599319990E-02
  2.66248537199E-02  2.68924379484E-02  2.71627114431E-02  2.74357012315E-02
  2.77114346130E-02  2.79899391610E-02  2.82712427262E-02  2.85553734393E-02
  2.88423597135E-02  2.91322302477E-02  2.94250140293E-02  2.97207403367E-02
  3.00194387430E-02  3.03211391181E-02  3.06258716324E-02  3.09336667594E-02
  3.12445552789E-02  3.15585682799E-02  3.18757371641E-02  3.21960936485E-02
  3.25196697691E-02  3.28464978838E-02  3.31766106757E-02  3.35100411563E-02
  3.38468226689E-02  3.41869888920E-02  3.45305738424E-02  3.48776118791E-02
  3.52281377059E-02  3.55821863760E-02  3.59397932943E-02  3.63009942218E-02
  3.66658252791E-02  3.70343229494E-02  3.74065240829E-02  3.77824659000E-02
  3.81621859951E-02  3.85457223407E-02  3.89331132906E-02  3.93243975843E-02
  3.97196143505E-02  4.01188031112E-02  4.05220037857E-02  4.09292566943E-02
  4.13406025627E-02  4.17560825258E-02  4.21757381320E-02  4.25996113471E-02
  4.30277445589E-02  4.34601805810E-02  4.38969626573E-02  4.43381344665E-02
  4.47837401261E-02  4.52338241970E-02  4.56884316880E-02  4.61476080603E-02
  4.66113992319E-02  4.70798515822E-02  4.75530119569E-02  4.80309276724E-02
  4.85136465207E-02  4.90012167741E-02  4.94936871900E-02  4.99911070159E-02
  5.04935259941E-02  5.10009943670E-02  5.15135628819E-02  5.20312827959E-02
  5.25542058816E-02  5.30823844317E-02  5.36158712645E-02  5.41547197291E-02
  5.46989837107E-02  5.52487176364E-02  5.58039764798E-02  5.63648157674E-02
  5.69312915835E-02  5.75034605762E-02  5.80813799629E-02  5.86651075360E-02
  5.92547016688E-02  5.98502213211E-02  6.04517260454E-02  6.10592759927E-02
  6.16729319184E-02  6.22927551888E-02  6.29188077866E-02  6.35511523176E-02
  6.41898520167E-02  6.48349707546E-02  6.54865730436E-02  6.61447240445E-02
  6.68094895728E-02  6.74809361059E-02  6.81591307887E-02  6.88441414415E-02
  6.95360365657E-02  7.02348853516E-02  7.09407576845E-02  7.16537241523E-02
  7.23738560522E-02  7.31012253981E-02  7.38359049274E-02  7.45779681087E-02
  7.53274891490E-02  7.60845430010E-02  7.68492053707E-02  7.76215527249E-02
  7.84016622991E-02  7.91896121049E-02  7.99854809379E-02  8.07893483856E-02
  8.16012948355E-02  8.24214014829E-02  8.32497503391E-02  8.40864242398E-02
  8.49315068529E-02  8.57850826875E-02  8.66472371018E-02  8.75180563121E-02
  8.83976274009E-02  8.92860383261E-02  9.01833779296E-02  9.10897359460E-02
  9.20052030119E-02  9.29298706748E-02  9.38638314022E-02  9.48071785909E-02
  9.57600065765E-02  9.67224106426E-02  9.76944870303E-02  9.86763329482E-02
  9.96680465816E-02  1.00669727103E-01  1.01681474680E-01  1.02703390490E-01
  1.03735576725E-01  1.04778136603E-01  1.05831174383E-01  1.06894795368E-01
  1.07969105922E-01  1.09054213477E-01  1.10150226543E-01  1.11257254724E-01
  1.12375408724E-01  1.13504800358E-01  1.14645542566E-01  1.15797749424E-01
  1.16961536154E-01  1.18137019135E-01  1.19324315916E-01  1.20523545228E-01
  1.21734826995E-01  1.22958282346E-01  1.24194033628E-01  1.25442204417E-01
  1.26702919531E-01  1.27976305042E-01  1.29262488291E-01  1.30561597896E-01
  1.31873763770E-01  1.33199117129E-01  1.34537790512E-01  1.35889917786E-01
  1.37255634165E-01  1.38635076221E-01  1.40028381901E-01  1.41435690536E-01
  1.42857142857E-01  1.44292881012E-01  1.45743048575E-01  1.47207790565E-01
  1.48687253456E-01  1.50181585197E-01  1.51690935221E-01  1.53215454465E-01
  1.54755295382E-01  1.56310611958E-01  1.57881559725E-01  1.59468295780E-01
  1.61070978797E-01  1.62689769046E-01  1.64324828408E-01  1.65976320390E-01
  1.67644410142E-01  1.69329264474E-01  1.71031051875E-01  1.72749942522E-01
  1.74486108309E-01  1.76239722851E-01  1.78010961512E-01  1.79800001418E-01
  1.81607021474E-01  1.83432202384E-01  1.85275726667E-01  1.87137778676E-01
  1.89018544620E-01  1.90918212575E-01  1.92836972511E-01  1.94775016305E-01
  1.96732537762E-01  1.98709732638E-01  2.00706798652E-01  2.02723935513E-01
  2.04761344937E-01  2.06819230666E-01  2.08897798491E-01  2.10997256269E-01
  2.13117813949E-01  2.15259683588E-01  2.17423079374E-01  2.19608217650E-01
  2.21815316930E-01  2.24044597927E-01  2.26296283571E-01  2.28570599031E-01
  2.30867771742E-01  2.33188031422E-01  2.35531610100E-01  2.37898742135E-01
  2.40289664243E-01  2.42704615517E-01  2.45143837455E-01  2.47607573981E-01
  2.50096071471E-01  2.52609578776E-01  2.55148347250E-01  2.57712630771E-01
  2.60302685770E-01  2.62918771255E-01  2.65561148835E-01  2.68230082752E-01
  2.70925839901E-01  2.73648689859E-01  2.76398904915E-01  2.79176760091E-01
  2.81982533176E-01  2.84816504749E-01  2.87678958210E-01  2.90570179807E-01
  2.93490458663E-01  2.96440086811E-01  2.99419359213E-01  3.02428573802E-01
  3.05468031500E-01  3.08538036255E-01  3.11638895071E-01  3.14770918037E-01
  3.17934418356E-01  3.21129712382E-01  3.24357119647E-01  3.27616962895E-01
  3.30909568112E-01  3.34235264561E-01  3.37594384815E-01  3.40987264789E-01
  3.44414243774E-01  3.47875664470E-01  3.51371873022E-01  3.54903219055E-01
  3.58470055705E-01  3.62072739660E-01  3.65711631190E-01  3.69387094188E-01
  3.73099496203E-01  3.76849208479E-01  3.80636605990E-01  3.84462067478E-01
  3.88325975494E-01  3.92228716431E-01  3.96170680566E-01  4.00152262100E-01
  4.04173859193E-01  4.08235874009E-01  4.12338712753E-01  4.16482785711E-01
  4.20668507295E-01  4.24896296080E-01  4.29166574849E-01  4.33479770634E-01
  4.37836314756E-01  4.42236642875E-01  4.46681195027E-01  4.51170415670E-01
  4.55704753731E-01  4.60284662647E-01  4.64910600413E-01  4.69583029626E-01
  4.74302417534E-01  4.79069236078E-01  4.83883961946E-01  4.88747076613E-01
  4.93659066395E-01  4.98620422495E-01  5.03631641052E-01  5.08693223194E-01
  5.13805675081E-01  5.18969507965E-01  5.24185238231E-01  5.29453387459E-01
  5.34774482466E-01  5.40149055367E-01  5.45577643624E-01  5.51060790100E-01
  5.56599043114E-01  5.62192956496E-01  5.67843089642E-01  5.73550007571E-01
  5.79314280978E-01  5.85136486296E-01  5.91017205750E-01  5.96957027418E-01
  6.02956545285E-01  6.09016359310E-01  6.15137075478E-01  6.21319305866E-01
  6.27563668703E-01  6.33870788429E-01  6.40241295763E-01  6.46675827759E-01
  6.53175027877E-01  6.59739546043E-01  6.66370038713E-01  6.73067168942E-01
  6.79831606448E-01  6.86664027682E-01  6.93565115891E-01  7.00535561190E-01
  7.07576060628E-01  7.14687318262E-01  7.21870045223E-01  7.29124959791E-01
  7.36452787462E-01  7.43854261026E-01  7.51330120635E-01  7.58881113883E-01
  7.66507995875E-01  7.74211529304E-01  7.81992484532E-01  7.89851639661E-01
  7.97789780611E-01  8.05807701204E-01  8.13906203239E-01  8.22086096572E-01
  8.30348199200E-01  8.38693337340E-01  8.47122345513E-01  8.55636066626E-01
  8.64235352059E-01  8.72921061747E-01  8.81694064269E-01  8.90555236932E-01
  8.99505465861E-01  9.08545646086E-01  9.17676681633E-01  9.26899485612E-01
  9.36214980313E-01  9.45624097292E-01  9.55127777468E-01  9.64726971219E-01
  9.74422638470E-01  9.84215748797E-01  9.94107281520E-01  1.00409822580E+00
  1.01418958074E+00  1.02438235548E+00  1.03467756931E+00  1.04507625176E+00
  1.05557944270E+00  1.06618819247E+00  1.07690356195E+00  1.08772662268E+00
  1.09865845698E+00  1.10970015804E+00  1.12085283005E+00  1.13211758826E+00
  1.14349555919E+00  1.15498788062E+00  1.16659570180E+00  1.17832018352E+00
  1.19016249824E+00  1.20212383021E+00  1.21420537556E+00  1.22640834245E+00
  1.23873395121E+00  1.25118343439E+00  1.26375803696E+00  1.27645901639E+00
  1.28928764278E+00  1.30224519901E+00  1.31533298084E+00  1.32855229707E+00
  1.34190446963E+00  1.35539083377E+00  1.36901273811E+00  1.38277154487E+00
  1.39666862993E+00  1.41070538302E+00  1.42488320783E+00  1.43920352214E+00
  1.45366775801E+00  1.46827736186E+00  1.48303379468E+00  1.49793853210E+00
  1.51299306463E+00  1.52819889773E+00  1.54355755199E+00  1.55907056329E+00
  1.57473948295E+00  1.59056587787E+00  1.60655133070E+00  1.62269744000E+00
  1.63900582040E+00  1.65547810275E+00  1.67211593428E+00  1.68892097881E+00
  1.70589491684E+00  1.72303944578E+00  1.74035628010E+00  1.75784715150E+00
  1.77551380908E+00  1.79335801952E+00  1.81138156726E+00  1.82958625467E+00
  1.84797390222E+00  1.86654634870E+00  1.88530545138E+00  1.90425308617E+00
  1.92339114786E+00  1.94272155026E+00  1.96224622644E+00  1.98196712888E+00
  2.00188622968E+00  2.02200552077E+00  2.04232701410E+00  2.06285274183E+00
  2.08358475655E+00  2.10452513149E+00  2.12567596070E+00  2.14703935927E+00
  2.16861746356E+00  2.19041243142E+00  2.21242644233E+00  2.23466169774E+00
  2.25712042118E+00  2.27980485854E+00  2.30271727829E+00  2.32585997168E+00
  2.34923525301E+00  2.37284545983E+00  2.39669295316E+00  2.42078011779E+00
  2.44510936245E+00  2.46968312008E+00  2.49450384808E+00  2.51957402855E+00
  2.54489616852E+00  2.57047280022E+00  2.59630648135E+00  2.62239979529E+00
  2.64875535139E+00  2.67537578524E+00  2.70226375889E+00  2.72942196118E+00
  2.75685310793E+00  2.78455994229E+00  2.81254523497E+00  2.84081178451E+00
  2.86936241760E+00  2.89819998932E+00  2.92732738346E+00  2.95674751277E+00
  2.98646331930E+00  3.01647777465E+00  3.04679388029E+00  3.07741466786E+00
  3.10834319946E+00  3.13958256797E+00  3.17113589735E+00  3.20300634296E+00
  3.23519709188E+00  3.26771136321E+00  3.30055240839E+00  3.33372351156E+00
  3.36722798987E+00  3.40106919378E+00  3.43525050744E+00  3.46977534901E+00
  3.50464717102E+00  3.53986946066E+00  3.57544574019E+00  3.61137956728E+00
  3.64767453534E+00  3.68433427388E+00  3.72136244893E+00  3.75876276332E+00
  3.79653895712E+00  3.83469480799E+00  3.87323413152E+00  3.91216078170E+00
  3.95147865122E+00  3.99119167189E+00  4.03130381506E+00  4.07181909197E+00
  4.11274155418E+00  4.15407529397E+00  4.19582444476E+00  4.23799318148E+00
  4.28058572106E+00  4.32360632277E+00  4.36705928872E+00  4.41094896424E+00
  4.45527973833E+00  4.50005604411E+00  4.54528235924E+00  4.59096320639E+00
  4.63710315369E+00  4.68370681518E+00  4.73077885124E+00  4.77832396913E+00
  4.82634692341E+00  4.87485251639E+00  4.92384559869E+00  4.97333106966E+00
  5.02331387787E+00  5.07379902166E+00  5.12479154958E+00  5.17629656093E+00
  5.22831920624E+00  5.28086468783E+00  5.33393826029E+00  5.38754523103E+00
  5.44169096077E+00  5.49638086415E+00  5.55162041019E+00  5.60741512290E+00
  5.66377058180E+00  5.72069242247E+00  5.77818633715E+00  5.83625807528E+00
  5.89491344409E+00  5.95415830915E+00  6.01399859500E+00  6.07444028572E+00
  6.13548942554E+00  6.19715211941E+00  6.25943453365E+00  6.32234289657E+00
  6.38588349904E+00  6.45006269519E+00  6.51488690298E+00  6.58036260489E+00
  6.64649634854E+00  6.71329474737E+00  6.78076448126E+00  6.84891229726E+00
  6.91774501019E+00  6.98726950339E+00  7.05749272936E+00  7.12842171049E+00
  7.20006353972E+00  7.27242538131E+00  7.34551447150E+00  7.41933811926E+00
  7.49390370701E+00  7.56921869138E+00  7.64529060393E+00  7.72212705190E+00
  7.79973571902E+00  7.87812436621E+00  7.95730083240E+00  8.03727303530E+00
  8.11804897221E+00  8.19963672078E+00  8.28204443985E+00  8.36528037027E+00
  8.44935283570E+00  8.53427024345E+00  8.62004108534E+00  8.70667393852E+00
  8.79417746635E+00  8.88256041925E+00  8.97183163560E+00  9.06200004259E+00
  9.15307465713E+00  9.24506458677E+00  9.33797903057E+00  9.43182728006E+00
  9.52661872013E+00  9.62236283002E+00  9.71906918420E+00  9.81674745341E+00
  9.91540740554E+00  1.00150589067E+01  1.01157119220E+01  1.02173765170E+01
  1.03200628582E+01  1.04237812142E+01  1.05285419571E+01  1.06343555629E+01
  1.07412326131E+01  1.08491837956E+01  1.09582199055E+01  1.10683518465E+01
  1.11795906319E+01  1.12919473857E+01  1.14054333436E+01  1.15200598544E+01
  1.16358383807E+01  1.17527805006E+01  1.18708979083E+01  1.19902024158E+01
  1.21107059534E+01  1.22324205717E+01  1.23553584423E+01  1.24795318591E+01
  1.26049532394E+01  1.27316351255E+01  1.28595901858E+01  1.29888312158E+01
  1.31193711397E+01  1.32512230117E+01  1.33844000171E+01  1.35189154736E+01
  1.36547828329E+01  1.37920156818E+01  1.39306277439E+01  1.40706328803E+01
  1.42120450917E+01  1.43548785195E+01  1.44991474471E+01  1.46448663015E+01
  1.47920496548E+01  1.49407122253E+01  1.50908688795E+01  1.52425346332E+01
  1.53957246531E+01  1.55504542582E+01  1.57067389217E+01  1.58645942722E+01
  1.60240360954E+01  1.61850803355E+01  1.63477430972E+01  1.65120406467E+01
  1.66779894141E+01  1.68456059944E+01  1.70149071493E+01  1.71859098090E+01
  1.73586310741E+01  1.75330882168E+01  1.77092986828E+01  1.78872800935E+01
  1.80670502472E+01  1.82486271209E+01  1.84320288725E+01  1.86172738424E+01
  1.88043805551E+01  1.89933677216E+01  1.91842542407E+01  1.93770592012E+01
  1.95718018838E+01  1.97685017629E+01  1.99671785086E+01  2.01678519888E+01
  2.03705422710E+01  2.05752696244E+01  2.07820545219E+01  2.09909176422E+01
  2.12018798718E+01  2.14149623070E+01  2.16301862563E+01  2.18475732422E+01
  2.20671450037E+01  2.22889234981E+01  2.25129309033E+01  2.27391896205E+01
  2.29677222755E+01  2.31985517219E+01  2.34317010428E+01  2.36671935534E+01
  2.39050528030E+01  2.41453025778E+01  2.43879669030E+01  2.46330700453E+01
  2.48806365150E+01  2.51306910692E+01  2.53832587133E+01  2.56383647045E+01
  2.58960345536E+01  2.61562940277E+01  2.64191691530E+01  2.66846862172E+01
  2.69528717722E+01  2.72237526369E+01  2.74973558996E+01  2.77737089208E+01
  2.80528393360E+01  2.83347750585E+01  2.86195442821E+01  2.89071754840E+01
  2.91976974276E+01  2.94911391652E+01  2.97875300413E+01  3.00868996952E+01
  3.03892780642E+01  3.06946953863E+01  3.10031822036E+01  3.13147693649E+01
  3.16294880292E+01  3.19473696686E+01  3.22684460717E+01  3.25927493463E+01
  3.29203119229E+01  3.32511665582E+01  3.35853463379E+01  3.39228846802E+01
  3.42638153392E+01  3.46081724083E+01  3.49559903235E+01  3.53073038668E+01
  3.56621481700E+01  3.60205587176E+01  3.63825713512E+01  3.67482222723E+01
  3.71175480461E+01  3.74905856058E+01  3.78673722552E+01  3.82479456734E+01
  3.86323439180E+01  3.90206054293E+01  3.94127690335E+01  3.98088739476E+01
  4.02089597822E+01  4.06130665463E+01  4.10212346509E+01  4.14335049131E+01
  4.18499185604E+01  4.22705172344E+01  4.26953429953E+01  4.31244383261E+01
  4.35578461367E+01  4.39956097682E+01  4.44377729973E+01  4.48843800408E+01
  4.53354755597E+01  4.57911046639E+01  4.62513129167E+01  4.67161463394E+01
  4.71856514157E+01  4.76598750964E+01  4.81388648043E+01  4.86226684388E+01
  4.91113343807E+01  4.96049114970E+01  5.01034491457E+01  5.06069971811E+01
  5.11156059584E+01  5.16293263389E+01  5.21482096950E+01  5.26723079156E+01
  5.32016734109E+01  5.37363591178E+01  5.42764185054E+01  5.48219055802E+01
  5.53728748911E+01  5.59293815357E+01  5.64914811650E+01  5.70592299896E+01
  5.76326847847E+01  5.82119028963E+01  5.87969422467E+01  5.93878613403E+01
  5.99847192695E+01
  </PP_R>
  <PP_RAB>
  4.79232325575E-07  4.84048690519E-07  4.88913460736E-07  4.93827122706E-07
  4.98790167800E-07  5.03803092326E-07  5.08866397581E-07  5.13980589901E-07
  5.19146180707E-07  5.24363686564E-07  5.29633629227E-07  5.34956535694E-07
  5.40332938261E-07  5.45763374571E-07  5.51248387674E-07  5.56788526075E-07
  5.62384343793E-07  5.68036400414E-07  5.73745261148E-07  5.79511496886E-07
  5.85335684257E-07  5.91218405684E-07  5.97160249444E-07  6.03161809727E-07
  6.09223686694E-07  6.15346486537E-07  6.21530821541E-07  6.27777310145E-07
  6.34086577004E-07  6.40459253049E-07  6.46895975553E-07  6.53397388193E-07
  6.59964141117E-07  6.66596891004E-07  6.73296301137E-07  6.80063041460E-07
  6.86897788655E-07  6.93801226201E-07  7.00774044447E-07  7.07816940682E-07
  7.14930619201E-07  7.22115791377E-07  7.29373175735E-07  7.36703498018E-07
  7.44107491264E-07  7.51585895880E-07  7.59139459712E-07  7.66768938122E-07
  7.74475094065E-07  7.82258698163E-07  7.90120528783E-07  7.98061372114E-07
  8.06082022247E-07  8.14183281254E-07  8.22365959268E-07  8.30630874563E-07
  8.38978853637E-07  8.47410731296E-07  8.55927350735E-07  8.64529563622E-07
  8.73218230185E-07  8.81994219299E-07  8.90858408571E-07  8.99811684425E-07
  9.08854942198E-07  9.17989086222E-07  9.27215029920E-07  9.36533695894E-07
  9.45946016018E-07  9.55452931531E-07  9.65055393134E-07  9.74754361081E-07
  9.84550805275E-07  9.94445705371E-07  1.00444005087E-06  1.01453484120E-06
  1.02473108587E-06  1.03502980450E-06  1.04543202697E-06  1.05593879352E-06
  1.06655115482E-06  1.07727017213E-06  1.08809691736E-06  1.09903247318E-06
  1.11007793317E-06  1.12123440187E-06  1.13250299495E-06  1.14388483927E-06