<PP_INFO>
Generated using Vanderbilt code, version   7  3  2                              
Author: Yi Yao    Generation date:    0    0    0                               
Automatically converted from original format                                    
    0        The Pseudo was generated with a Non-Relativistic Calculation
nl pn  l   occ               Rcut            Rcut US             E pseu
0S  0  0  2.00      0.00000000000      0.00000000000      0.00000000000
0P  0  1  6.00      0.00000000000      0.00000000000      0.00000000000
</PP_INFO>


<PP_HEADER>
   0                   Version Number
  Ne                   Element
   NC                  Norm - Conserving pseudopotential
    F                  Nonlinear Core Correction
 SLA  PW   SCAN SCAN   SCAN Exchange-Correlation functional
    8.00000000000      Z valence
    0.00000000000      Total energy
    0.00000    0.00000 Suggested cutoff for wfc and rho
    0                  Max angular momentum component
 1441                  Number of points in mesh
    2    1             Number of Wavefunctions, Number of Projectors
 Wavefunctions         nl  l   occ
                       0S  0  2.00
                       0P  1  6.00
</PP_HEADER>


<PP_MESH>
  <PP_R>
  3.35462627903E-05  3.38834083363E-05  3.42239422515E-05  3.45678985894E-05
  3.49153117460E-05  3.52662164628E-05  3.56206478307E-05  3.59786412930E-05
  3.63402326495E-05  3.67054580595E-05  3.70743540459E-05  3.74469574986E-05
  3.78233056783E-05  3.82034362200E-05  3.85873871372E-05  3.89751968253E-05
  3.93669040655E-05  3.97625480290E-05  4.01621682803E-05  4.05658047820E-05
  4.09734978980E-05  4.13852883979E-05  4.18012174611E-05  4.22213266809E-05
  4.26456580686E-05  4.30742540576E-05  4.35071575079E-05  4.39444117102E-05
  4.43860603903E-05  4.48321477134E-05  4.52827182887E-05  4.57378171735E-05
  4.61974898782E-05  4.66617823703E-05  4.71307410796E-05  4.76044129022E-05
  4.80828452058E-05  4.85660858340E-05  4.90541831113E-05  4.95471858477E-05
  5.00451433441E-05  5.05481053964E-05  5.10561223014E-05  5.15692448612E-05
  5.20875243885E-05  5.26110127116E-05  5.31397621798E-05  5.36738256685E-05
  5.42132565846E-05  5.47581088714E-05  5.53084370148E-05  5.58642960479E-05
  5.64257415573E-05  5.69928296878E-05  5.75656171487E-05  5.81441612194E-05
  5.87285197546E-05  5.93187511907E-05  5.99149145514E-05  6.05170694535E-05
  6.11252761130E-05  6.17395953510E-05  6.23600885999E-05  6.29868179098E-05
  6.36198459539E-05  6.42592360356E-05  6.49050520944E-05  6.55573587126E-05
  6.62162211212E-05  6.68817052072E-05  6.75538775194E-05  6.82328052756E-05
  6.89185563693E-05  6.96111993760E-05  7.03108035606E-05  7.10174388843E-05
  7.17311760109E-05  7.24520863150E-05  7.31802418880E-05  7.39157155463E-05
  7.46585808377E-05  7.54089120494E-05  7.61667842151E-05  7.69322731227E-05
  7.77054553218E-05  7.84864081311E-05  7.92752096466E-05  8.00719387492E-05
  8.08766751124E-05  8.16894992105E-05  8.25104923266E-05  8.33397365607E-05
  8.41773148379E-05  8.50233109167E-05  8.58778093974E-05  8.67408957307E-05
  8.76126562258E-05  8.84931780596E-05  8.93825492849E-05  9.02808588396E-05
  9.11881965555E-05  9.21046531669E-05  9.30303203205E-05  9.39652905836E-05
  9.49096574541E-05  9.58635153694E-05  9.68269597161E-05  9.78000868395E-05
  9.87829940531E-05  9.97757796484E-05  1.00778542905E-04  1.01791384100E-04
  1.02814404517E-04  1.03847706462E-04  1.04891393263E-04  1.05945569291E-04
  1.07010339964E-04  1.08085811760E-04  1.09172092228E-04  1.10269289996E-04
  1.11377514784E-04  1.12496877417E-04  1.13627489832E-04  1.14769465090E-04
  1.15922917390E-04  1.17087962079E-04  1.18264715662E-04  1.19453295814E-04
  1.20653821396E-04  1.21866412460E-04  1.23091190267E-04  1.24328277296E-04
  1.25577797256E-04  1.26839875101E-04  1.28114637038E-04  1.29402210547E-04
  1.30702724384E-04  1.32016308602E-04  1.33343094561E-04  1.34683214941E-04
  1.36036803755E-04  1.37403996362E-04  1.38784929484E-04  1.40179741214E-04
  1.41588571035E-04  1.43011559831E-04  1.44448849902E-04  1.45900584979E-04
  1.47366910235E-04  1.48847972306E-04  1.50343919298E-04  1.51854900807E-04
  1.53381067932E-04  1.54922573293E-04  1.56479571039E-04  1.58052216874E-04
  1.59640668061E-04  1.61245083449E-04  1.62865623479E-04  1.64502450207E-04
  1.66155727317E-04  1.67825620139E-04  1.69512295662E-04  1.71215922557E-04
  1.72936671186E-04  1.74674713626E-04  1.76430223683E-04  1.78203376910E-04
  1.79994350623E-04  1.81803323921E-04  1.83630477703E-04  1.85475994686E-04
  1.87340059422E-04  1.89222858321E-04  1.91124579663E-04  1.93045413623E-04
  1.94985552285E-04  1.96945189664E-04  1.98924521727E-04  2.00923746407E-04
  2.02943063630E-04  2.04982675328E-04  2.07042785464E-04  2.09123600052E-04
  2.11225327173E-04  2.13348177004E-04  2.15492361830E-04  2.17658096072E-04
  2.19845596304E-04  2.22055081280E-04  2.24286771949E-04  2.26540891481E-04
  2.28817665292E-04  2.31117321060E-04  2.33440088753E-04  2.35786200649E-04
  2.38155891362E-04  2.40549397862E-04  2.42966959502E-04  2.45408818041E-04
  2.47875217667E-04  2.50366405020E-04  2.52882629223E-04  2.55424141899E-04
  2.57991197203E-04  2.60584051841E-04  2.63202965101E-04  2.65848198878E-04
  2.68520017695E-04  2.71218688739E-04  2.73944481877E-04  2.76697669691E-04
  2.79478527504E-04  2.82287333402E-04  2.85124368268E-04  2.87989915809E-04
  2.90884262581E-04  2.93807698022E-04  2.96760514478E-04  2.99743007233E-04
  3.02755474538E-04  3.05798217642E-04  3.08871540824E-04  3.11975751416E-04
  3.15111159844E-04  3.18278079651E-04  3.21476827531E-04  3.24707723361E-04
  3.27971090234E-04  3.31267254490E-04  3.34596545747E-04  3.37959296938E-04
  3.41355844340E-04  3.44786527610E-04  3.48251689821E-04  3.51751677491E-04
  3.55286840622E-04  3.58857532733E-04  3.62464110897E-04  3.66106935773E-04
  3.69786371648E-04  3.73502786469E-04  3.77256551879E-04  3.81048043259E-04
  3.84877639761E-04  3.88745724348E-04  3.92652683831E-04  3.96598908909E-04
  4.00584794209E-04  4.04610738322E-04  4.08677143846E-04  4.12784417426E-04
  4.16932969790E-04  4.21123215800E-04  4.25355574482E-04  4.29630469075E-04
  4.33948327074E-04  4.38309580267E-04  4.42714664783E-04  4.47164021135E-04
  4.51658094261E-04  4.56197333574E-04  4.60782192999E-04  4.65413131028E-04
  4.70090610758E-04  4.74815099941E-04  4.79587071030E-04  4.84407001225E-04
  4.89275372524E-04  4.94192671768E-04  4.99159390691E-04  5.04176025969E-04
  5.09243079270E-04  5.14361057303E-04  5.19530471871E-04  5.24751839918E-04
  5.30025683587E-04  5.35352530266E-04  5.40732912644E-04  5.46167368764E-04
  5.51656442076E-04  5.57200681492E-04  5.62800641440E-04  5.68456881922E-04
  5.74169968565E-04  5.79940472684E-04  5.85768971334E-04  5.91656047368E-04
  5.97602289501E-04  6.03608292360E-04  6.09674656552E-04  6.15801988717E-04
  6.21990901594E-04  6.28242014080E-04  6.34555951291E-04  6.40933344626E-04
  6.47374831829E-04  6.53881057055E-04  6.60452670931E-04  6.67090330626E-04
  6.73794699909E-04  6.80566449223E-04  6.87406255750E-04  6.94314803475E-04
  7.01292783259E-04  7.08340892905E-04  7.15459837231E-04  7.22650328138E-04
  7.29913084679E-04  7.37248833137E-04  7.44658307092E-04  7.52142247499E-04
  7.59701402758E-04  7.67336528790E-04  7.75048389114E-04  7.82837754923E-04
  7.90705405159E-04  7.98652126596E-04  8.06678713910E-04  8.14785969768E-04
  8.22974704902E-04  8.31245738192E-04  8.39599896749E-04  8.48038015995E-04
  8.56560939750E-04  8.65169520312E-04  8.73864618547E-04  8.82647103973E-04
  8.91517854844E-04  9.00477758244E-04  9.09527710170E-04  9.18668615624E-04
  9.27901388706E-04  9.37226952701E-04  9.46646240171E-04  9.56160193054E-04
  9.65769762754E-04  9.75475910234E-04  9.85279606119E-04  9.95181830785E-04
  1.00518357446E-03  1.01528583734E-03  1.02548962964E-03  1.03579597176E-03
  1.04620589434E-03  1.05672043839E-03  1.06734065535E-03  1.07806760727E-03
  1.08890236686E-03  1.09984601758E-03  1.11089965382E-03  1.12206438096E-03
  1.13334131547E-03  1.14473158505E-03  1.15623632875E-03  1.16785669704E-03
  1.17959385198E-03  1.19144896728E-03  1.20342322847E-03  1.21551783299E-03
  1.22773399031E-03  1.24007292204E-03  1.25253586211E-03  1.26512405680E-03
  1.27783876495E-03  1.29068125805E-03  1.30365282034E-03  1.31675474901E-03
  1.32998835424E-03  1.34335495942E-03  1.35685590122E-03  1.37049252974E-03
  1.38426620865E-03  1.39817831533E-03  1.41223024102E-03  1.42642339090E-03
  1.44075918431E-03  1.45523905484E-03  1.46986445049E-03  1.48463683381E-03
  1.49955768205E-03  1.51462848730E-03  1.52985075667E-03  1.54522601239E-03
  1.56075579200E-03  1.57644164849E-03  1.59228515045E-03  1.60828788226E-03
  1.62445144419E-03  1.64077745263E-03  1.65726754018E-03  1.67392335586E-03
  1.69074656527E-03  1.70773885075E-03  1.72490191153E-03  1.74223746395E-03
  1.75974724156E-03  1.77743299537E-03  1.79529649395E-03  1.81333952368E-03
  1.83156388887E-03  1.84997141198E-03  1.86856393377E-03  1.88734331352E-03
  1.90631142916E-03  1.92547017754E-03  1.94482147454E-03  1.96436725531E-03
  1.98410947444E-03  2.00405010617E-03  2.02419114458E-03  2.04453460379E-03
  2.06508251817E-03  2.08583694252E-03  2.10679995230E-03  2.12797364384E-03
  2.14936013451E-03  2.17096156298E-03  2.19278008943E-03  2.21481789570E-03
  2.23707718562E-03  2.25956018511E-03  2.28226914251E-03  2.30520632872E-03
  2.32837403749E-03  2.35177458560E-03  2.37541031313E-03  2.39928358367E-03
  2.42339678457E-03  2.44775232717E-03  2.47235264703E-03  2.49720020423E-03
  2.52229748352E-03  2.54764699467E-03  2.57325127264E-03  2.59911287788E-03
  2.62523439657E-03  2.65161844089E-03  2.67826764926E-03  2.70518468664E-03
  2.73237224473E-03  2.75983304232E-03  2.78756982552E-03  2.81558536803E-03
  2.84388247142E-03  2.87246396542E-03  2.90133270822E-03  2.93049158670E-03
  2.95994351679E-03  2.98969144369E-03  3.01973834223E-03  3.05008721712E-03
  3.08074110328E-03  3.11170306611E-03  3.14297620184E-03  3.17456363781E-03
  3.20646853279E-03  3.23869407729E-03  3.27124349390E-03  3.30412003759E-03
  3.33732699603E-03  3.37086768996E-03  3.40474547346E-03  3.43896373435E-03
  3.47352589447E-03  3.50843541008E-03  3.54369577216E-03  3.57931050677E-03
  3.61528317540E-03  3.65161737537E-03  3.68831674012E-03  3.72538493962E-03
  3.76282568072E-03  3.80064270752E-03  3.83883980176E-03  3.87742078317E-03
  3.91638950990E-03  3.95574987884E-03  3.99550582607E-03  4.03566132720E-03
  4.07622039784E-03  4.11718709391E-03  4.15856551212E-03  4.20035979034E-03
  4.24257410805E-03  4.28521268670E-03  4.32827979020E-03  4.37177972528E-03
  4.41571684197E-03  4.46009553403E-03  4.50492023936E-03  4.55019544046E-03
  4.59592566490E-03  4.64211548574E-03  4.68876952200E-03  4.73589243911E-03
  4.78348894942E-03  4.83156381261E-03  4.88012183620E-03  4.92916787605E-03
  4.97870683679E-03  5.02874367236E-03  5.07928338649E-03  5.13033103319E-03
  5.18189171727E-03  5.23397059484E-03  5.28657287384E-03  5.33970381452E-03
  5.39336873004E-03  5.44757298692E-03  5.50232200564E-03  5.55762126115E-03
  5.61347628341E-03  5.66989265798E-03  5.72687602655E-03  5.78443208748E-03
  5.84256659645E-03  5.90128536694E-03  5.96059427089E-03  6.02049923924E-03
  6.08100626252E-03  6.14212139150E-03  6.20385073774E-03  6.26620047422E-03
  6.32917683596E-03  6.39278612067E-03  6.45703468932E-03  6.52192896681E-03
  6.58747544264E-03  6.65368067150E-03  6.72055127397E-03  6.78809393718E-03
  6.85631541543E-03  6.92522253093E-03  6.99482217447E-03  7.06512130604E-03
  7.13612695564E-03  7.20784622388E-03  7.28028628274E-03  7.35345437631E-03
  7.42735782143E-03  7.50200400853E-03  7.57740040228E-03  7.65355454239E-03
  7.73047404433E-03  7.80816660012E-03  7.88663997907E-03  7.96590202859E-03
  8.04596067495E-03  8.12682392409E-03  8.20849986239E-03  8.29099665752E-03
  8.37432255922E-03  8.45848590016E-03  8.54349509673E-03  8.62935864994E-03
  8.71608514620E-03  8.80368325824E-03  8.89216174594E-03  8.98152945722E-03
  9.07179532894E-03  9.16296838775E-03  9.25505775103E-03  9.34807262781E-03
  9.44202231963E-03  9.53691622155E-03  9.63276382305E-03  9.72957470895E-03
  9.82735856044E-03  9.92612515596E-03  1.00258843723E-02  1.01266461854E-02
  1.02284206716E-02  1.03312180083E-02  1.04350484755E-02  1.05399224562E-02
  1.06458504379E-02  1.07528430136E-02  1.08609108825E-02  1.09700648516E-02
  1.10803158362E-02  1.11916748617E-02  1.13041530640E-02  1.14177616911E-02
  1.15325121038E-02  1.16484157773E-02  1.17654843022E-02  1.18837293852E-02
  1.20031628511E-02  1.21237966433E-02  1.22456428253E-02  1.23687135817E-02
  1.24930212199E-02  1.26185781705E-02  1.27453969895E-02  1.28734903588E-02
  1.30028710878E-02  1.31335521148E-02  1.32655465080E-02  1.33988674669E-02
  1.35335283237E-02  1.36695425446E-02  1.38069237311E-02  1.39456856215E-02
  1.40858420921E-02  1.42274071587E-02  1.43703949778E-02  1.45148198484E-02
  1.46606962130E-02  1.48080386595E-02  1.49568619223E-02  1.51071808836E-02
  1.52590105757E-02  1.54123661815E-02  1.55672630368E-02  1.57237166314E-02
  1.58817426107E-02  1.60413567775E-02  1.62025750934E-02  1.63654136803E-02
  1.65298888222E-02  1.66960169667E-02  1.68638147269E-02  1.70332988825E-02
  1.72044863823E-02  1.73773943450E-02  1.75520400617E-02  1.77284409970E-02
  1.79066147911E-02  1.80865792617E-02  1.82683524053E-02  1.84519523993E-02
  1.86373976039E-02  1.88247065639E-02  1.90138980102E-02  1.92049908621E-02
  1.93980042291E-02  1.95929574127E-02  1.97898699084E-02  1.99887614075E-02
  2.01896517995E-02  2.03925611734E-02  2.05975098205E-02  2.08045182357E-02
  2.10136071201E-02  2.12247973827E-02  2.14381101427E-02  2.16535667316E-02
  2.18711886952E-02  2.20909977959E-02  2.23130160148E-02  2.25372655539E-02
  2.27637688384E-02  2.29925485187E-02  2.32236274730E-02  2.34570288094E-02
  2.36927758682E-02  2.39308922244E-02  2.41714016897E-02  2.44143283153E-02
  2.46596963942E-02  2.49075304632E-02  2.51578553060E-02  2.54106959553E-02
  2.56660776954E-02  2.59240260646E-02  2.61845668580E-02  2.64477261300E-02
  2.67135301966E-02  2.69820056385E-02  2.72531793034E-02  2.75270783090E-02
  2.78037300453E-02  2.80831621778E-02  2.83654026500E-02  2.86504796860E-02
  2.89384217939E-02  2.92292577681E-02  2.95230166924E-02  2.98197279430E-02
  3.01194211912E-02  3.04221264067E-02  3.07278738601E-02  3.10366941265E-02
  3.13486180883E-02  3.16636769379E-02  3.19819021816E-02  3.23033256422E-02
  3.26279794623E-02  3.29558961075E-02  3.32871083698E-02  3.36216493707E-02
  3.39595525645E-02  3.43008517419E-02  3.46455810330E-02  3.49937749111E-02
  3.53454681959E-02  3.57006960569E-02  3.60594940173E-02  3.64218979572E-02
  3.67879441171E-02  3.71576691022E-02  3.75311098851E-02  3.79083038103E-02
  3.82892885975E-02  3.86741023455E-02  3.90627835359E-02  3.94553710372E-02
  3.98519041085E-02  4.02524224034E-02  4.06569659741E-02  4.10655752752E-02
  4.14782911682E-02  4.18951549248E-02  4.23162082318E-02  4.27414931949E-02
  4.31710523429E-02  4.36049286322E-02  4.40431654506E-02  4.44858066223E-02
  4.49328964117E-02  4.53844795282E-02  4.58406011305E-02  4.63013068311E-02
  4.67666427010E-02  4.72366552741E-02  4.77113915521E-02  4.81908990090E-02
  4.86752255960E-02  4.91644197461E-02  4.96585303791E-02  5.01576069066E-02
  5.06616992366E-02  5.11708577787E-02  5.16851334492E-02  5.22045776761E-02
  5.27292424043E-02  5.32591801007E-02  5.37944437595E-02  5.43350869075E-02
  5.48811636094E-02  5.54327284735E-02  5.59898366565E-02  5.65525438700E-02
  5.71209063849E-02  5.76949810380E-02  5.82748252374E-02  5.88604969678E-02
  5.94520547970E-02  6.00495578812E-02  6.06530659713E-02  6.12626394184E-02
  6.18783391806E-02  6.25002268283E-02  6.31283645507E-02  6.37628151622E-02
  6.44036421083E-02  6.50509094723E-02  6.57046819815E-02  6.63650250136E-02
  6.70320046036E-02  6.77056874498E-02  6.83861409212E-02  6.90734330637E-02
  6.97676326071E-02  7.04688089719E-02  7.11770322763E-02  7.18923733432E-02
  7.26149037074E-02  7.33446956224E-02  7.40818220682E-02  7.48263567579E-02
  7.55783741456E-02  7.63379494337E-02  7.71051585804E-02  7.78800783071E-02
  7.86627861067E-02  7.94533602503E-02  8.02518797962E-02  8.10584245970E-02
  8.18730753078E-02  8.26959133943E-02  8.35270211411E-02  8.43664816596E-02
  8.52143788966E-02  8.60707976425E-02  8.69358235399E-02  8.78095430921E-02
  8.86920436717E-02  8.95834135297E-02  9.04837418036E-02  9.13931185271E-02
  9.23116346387E-02  9.32393819906E-02  9.41764533584E-02  9.51229424501E-02
  9.60789439152E-02  9.70445533549E-02  9.80198673307E-02  9.90049833749E-02
  1.00000000000E-01  1.01005016708E-01  1.02020134003E-01  1.03045453395E-01
  1.04081077419E-01  1.05127109638E-01  1.06183654655E-01  1.07250818125E-01
  1.08328706767E-01  1.09417428371E-01  1.10517091808E-01  1.11627807046E-01
  1.12749685158E-01  1.13882838332E-01  1.15027379886E-01  1.16183424273E-01
  1.17351087099E-01  1.18530485132E-01  1.19721736312E-01  1.20924959766E-01
  1.22140275816E-01  1.23367805996E-01  1.24607673059E-01  1.25860000993E-01
  1.27124915032E-01  1.28402541669E-01  1.29693008667E-01  1.30996445073E-01
  1.32312981234E-01  1.33642748803E-01  1.34985880758E-01  1.36342511413E-01
  1.37712776434E-01  1.39096812846E-01  1.40494759056E-01  1.41906754859E-01
  1.43332941456E-01  1.44773461466E-01  1.46228458943E-01  1.47698079388E-01
  1.49182469764E-01  1.50681778511E-01  1.52196155562E-01  1.53725752355E-01
  1.55270721851E-01  1.56831218549E-01  1.58407398499E-01  1.59999419322E-01
  1.61607440219E-01  1.63231621996E-01  1.64872127070E-01  1.66529119495E-01
  1.68202764970E-01  1.69893230862E-01  1.71600686218E-01  1.73325301787E-01
  1.75067250030E-01  1.76826705143E-01  1.78603843075E-01  1.80398841540E-01
  1.82211880039E-01  1.84043139878E-01  1.85892804185E-01  1.87761057926E-01
  1.89648087930E-01  1.91554082901E-01  1.93479233440E-01  1.95423732064E-01
  1.97387773223E-01  1.99371553324E-01  2.01375270747E-01  2.03399125865E-01
  2.05443321064E-01  2.07508060767E-01  2.09593551449E-01  2.11700001661E-01
  2.13827622050E-01  2.15976625378E-01  2.18147226550E-01  2.20339642626E-01
  2.22554092849E-01  2.24790798668E-01  2.27049983753E-01  2.29331874026E-01
  2.31636697678E-01  2.33964685193E-01  2.36316069371E-01  2.38691085352E-01
  2.41089970642E-01  2.43512965129E-01  2.45960311116E-01  2.48432253338E-01
  2.50929038994E-01  2.53450917762E-01  2.55998141833E-01  2.58570965932E-01
  2.61169647342E-01  2.63794445935E-01  2.66445624193E-01  2.69123447235E-01
  2.71828182846E-01  2.74560101502E-01  2.77319476396E-01  2.80106583470E-01
  2.82921701435E-01  2.85765111806E-01  2.88637098927E-01  2.91537949998E-01
  2.94467955107E-01  2.97427407256E-01  3.00416602395E-01  3.03435839444E-01
  3.06485420329E-01  3.09565650012E-01  3.12676836519E-01  3.15819290969E-01
  3.18993327612E-01  3.22199263853E-01  3.25437420289E-01  3.28708120738E-01
  3.32011692274E-01  3.35348465255E-01  3.38718773362E-01  3.42122953629E-01
  3.45561346476E-01  3.49034295746E-01  3.52542148737E-01  3.56085256236E-01
  3.59663972557E-01  3.63278655575E-01  3.66929666762E-01  3.70617371221E-01
  3.74342137726E-01  3.78104338757E-01  3.81904350537E-01  3.85742553070E-01
  3.89619330180E-01  3.93535069547E-01  3.97490162749E-01  4.01485005299E-01
  4.05519996684E-01  4.09595540407E-01  4.13712044025E-01  4.17869919192E-01
  4.22069581700E-01  4.26311451517E-01  4.30595952835E-01  4.34923514106E-01
  4.39294568092E-01  4.43709551900E-01  4.48168907034E-01  4.52673079431E-01
  4.57222519514E-01  4.61817682230E-01  4.66459027099E-01  4.71147018259E-01
  4.75882124514E-01  4.80664819378E-01  4.85495581124E-01  4.90374892833E-01
  4.95303242440E-01  5.00281122783E-01  5.05309031656E-01  5.10387471854E-01
  5.15516951223E-01  5.20697982718E-01  5.25931084445E-01  5.31216779718E-01
  5.36555597112E-01  5.41948070513E-01  5.47394739173E-01  5.52896147762E-01
  5.58452846428E-01  5.64065390843E-01  5.69734342267E-01  5.75460267601E-01
  5.81243739440E-01  5.87085336138E-01  5.92985641859E-01  5.98945246638E-01
  6.04964746441E-01  6.11044743223E-01  6.17185844988E-01  6.23388665852E-01
  6.29653826103E-01  6.35981952260E-01  6.42373677143E-01  6.48829639929E-01
  6.55350486219E-01  6.61936868104E-01  6.68589444228E-01  6.75308879853E-01
  6.82095846929E-01  6.88951024158E-01  6.95875097064E-01  7.02868758059E-01
  7.09932706516E-01  7.17067648835E-01  7.24274298516E-01  7.31553376231E-01
  7.38905609893E-01  7.46331734732E-01  7.53832493366E-01  7.61408635878E-01
  7.69060919888E-01  7.76790110631E-01  7.84596981032E-01  7.92482311785E-01
  8.00446891430E-01  8.08491516431E-01  8.16616991257E-01  8.24824128463E-01
  8.33113748769E-01  8.41486681144E-01  8.49943762889E-01  8.58485839718E-01
  8.67113765846E-01  8.75828404074E-01  8.84630625872E-01  8.93521311470E-01
  9.02501349943E-01  9.11571639304E-01  9.20733086588E-01  9.29986607948E-01
  9.39333128744E-01  9.48773583636E-01  9.58308916676E-01  9.67940081407E-01
  9.77668040953E-01  9.87493768117E-01  9.97418245481E-01  1.00744246550E+00
  1.01756743061E+00  1.02779415330E+00  1.03812365627E+00  1.04855697247E+00
  1.05909514524E+00  1.06973922841E+00  1.08049028639E+00  1.09134939430E+00
  1.10231763806E+00  1.11339611451E+00  1.12458593149E+00  1.13588820800E+00
  1.14730407428E+00  1.15883467192E+00  1.17048115400E+00  1.18224468516E+00
  1.19412644178E+00  1.20612761204E+00  1.21824939607E+00  1.23049300605E+00
  1.24285966636E+00  1.25535061367E+00  1.26796709708E+00  1.28071037827E+00
  1.29358173155E+00  1.30658244409E+00  1.31971381597E+00  1.33297716032E+00
  1.34637380350E+00  1.35990508518E+00  1.37357235851E+00  1.38737699021E+00
  1.40132036077E+00  1.41540386454E+00  1.42962890987E+00  1.44399691928E+00
  1.45850932959E+00  1.47316759204E+00  1.48797317249E+00  1.50292755149E+00
  1.51803222450E+00  1.53328870199E+00  1.54869850963E+00  1.56426318842E+00
  1.57998429483E+00  1.59586340098E+00  1.61190209480E+00  1.62810198018E+00
  1.64446467711E+00  1.66099182188E+00  1.67768506721E+00  1.69454608245E+00
  1.71157655371E+00  1.72877818406E+00  1.74615269366E+00  1.76370181998E+00
  1.78142731796E+00  1.79933096016E+00  1.81741453694E+00  1.83567985670E+00
  1.85412874597E+00  1.87276304967E+00  1.89158463123E+00  1.91059537282E+00
  1.92979717555E+00  1.94919195960E+00  1.96878166448E+00  1.98856824916E+00
  2.00855369232E+00  2.02873999252E+00  2.04912916842E+00  2.06972325894E+00
  2.09052432351E+00  2.11153444225E+00  2.13275571620E+00  2.15419026750E+00
  2.17584023962E+00  2.19770779758E+00  2.21979512814E+00  2.24210444007E+00
  2.26463796432E+00  2.28739795424E+00  2.31038668587E+00  2.33360645809E+00
  2.35705959291E+00  2.38074843564E+00  2.40467535521E+00  2.42884274431E+00
  2.45325301971E+00  2.47790862246E+00  2.50281201813E+00  2.52796569710E+00
  2.55337217474E+00  2.57903399172E+00  2.60495371425E+00  2.63113393433E+00
  2.65757726999E+00  2.68428636559E+00  2.71126389207E+00  2.73851254719E+00
  2.76603505585E+00  2.79383417032E+00  2.82191267054E+00  2.85027336438E+00
  2.87891908792E+00  2.90785270578E+00  2.93707711133E+00  2.96659522704E+00
  2.99641000474E+00  3.02652442594E+00  3.05694150211E+00  3.08766427497E+00
  3.11869581683E+00  3.15003923087E+00  3.18169765147E+00  3.21367424448E+00
  3.24597220759E+00  3.27859477062E+00  3.31154519587E+00  3.34482677839E+00
  3.37844284638E+00  3.41239676148E+00  3.44669191909E+00  3.48133174876E+00
  3.51631971451E+00  3.55165931516E+00  3.58735408471E+00  3.62340759265E+00
  3.65982344437E+00  3.69660528148E+00  3.73375678221E+00  3.77128166172E+00
  3.80918367254E+00  3.84746660490E+00  3.88613428713E+00  3.92519058603E+00
  3.96463940726E+00  4.00448469573E+00  4.04473043601E+00  4.08538065270E+00
  4.12643941086E+00  4.16791081640E+00  4.20979901650E+00  4.25210820001E+00
  4.29484259788E+00  4.33800648359E+00  4.38160417356E+00  4.42564002760E+00
  4.47011844933E+00  4.51504388663E+00  4.56042083208E+00  4.60625382342E+00
  4.65254744398E+00  4.69930632316E+00  4.74653513689E+00  4.79423860808E+00
  4.84242150713E+00  4.89108865237E+00  4.94024491055E+00  4.98989519734E+00
  5.04004447781E+00  5.09069776692E+00  5.14186013005E+00  5.19353668348E+00
  5.24573259491E+00  5.29845308397E+00  5.35170342275E+00  5.40548893633E+00
  5.45981500331E+00  5.51468705635E+00  5.57011058268E+00  5.62609112471E+00
  5.68263428055E+00  5.73974570454E+00  5.79743110790E+00  5.85569625919E+00
  5.91454698499E+00  5.97398917041E+00  6.03402875974E+00  6.09467175696E+00
  6.15592422644E+00  6.21779229348E+00  6.28028214492E+00  6.34340002981E+00
  6.40715225999E+00  6.47154521074E+00  6.53658532140E+00  6.60227909604E+00
  6.66863310409E+00  6.73565398101E+00  6.80334842894E+00  6.87172321738E+00
  6.94078518388E+00  7.01054123467E+00  7.08099834543E+00  7.15216356192E+00
  7.22404400073E+00  7.29664684996E+00  7.36997936996E+00  7.44404889403E+00
  7.51886282920E+00  7.59442865692E+00  7.67075393383E+00  7.74784629253E+00
  7.82571344231E+00  7.90436316996E+00  7.98380334051E+00  8.06404189805E+00
  8.14508686650E+00  8.22694635042E+00  8.30962853583E+00  8.39314169103E+00
  8.47749416738E+00  8.56269440022E+00  8.64875090963E+00  8.73567230134E+00
  8.82346726757E+00  8.91214458787E+00  9.00171313005E+00  9.09218185105E+00
  9.18355979782E+00  9.27585610821E+00  9.36908001195E+00  9.46324083149E+00
  9.55834798301E+00  9.65441097728E+00  9.75143942071E+00  9.84944301619E+00
  9.94843156419E+00  1.00484149636E+01  1.01494032130E+01  1.02514064110E+01
  1.03544347583E+01  1.04584985577E+01  1.05636082157E+01  1.06697742432E+01
  1.07770072571E+01  1.08853179807E+01  1.09947172452E+01  1.11052159906E+01
  1.12168252668E+01  1.13295562349E+01  1.14434201680E+01  1.15584284527E+01
  1.16745925899E+01  1.17919241961E+01  1.19104350045E+01  1.20301368663E+01
  1.21510417519E+01  1.22731617517E+01  1.23965090780E+01  1.25210960655E+01
  1.26469351730E+01  1.27740389846E+01  1.29024202107E+01  1.30320916896E+01
  1.31630663886E+01  1.32953574051E+01  1.34289779685E+01  1.35639414408E+01
  1.37002613186E+01  1.38379512340E+01  1.39770249560E+01  1.41174963921E+01
  1.42593795897E+01  1.44026887371E+01  1.45474381654E+01  1.46936423496E+01
  1.48413159103E+01  1.49904736149E+01  1.51411303794E+01  1.52933012696E+01
  1.54470015026E+01  1.56022464486E+01  1.57590516323E+01  1.59174327343E+01
  1.60774055929E+01  1.62389862053E+01  1.64021907300E+01  1.65670354874E+01
  1.67335369621E+01  1.69017118045E+01  1.70715768321E+01  1.72431490317E+01
  1.74164455605E+01  1.75914837484E+01  1.77682810993E+01  1.79468552932E+01
  1.81272241875E+01  1.83094058194E+01  1.84934184071E+01  1.86792803520E+01
  1.88670102406E+01  1.90566268459E+01  1.92481491297E+01  1.94415962445E+01
  1.96369875352E+01  1.98343425409E+01  2.00336809975E+01  2.02350228388E+01
  2.04383881993E+01  2.06437974156E+01  2.08512710289E+01  2.10608297867E+01
  2.12724946450E+01  2.14862867704E+01  2.17022275425E+01  2.19203385554E+01
  2.21406416204E+01  2.23631587681E+01  2.25879122502E+01  2.28149245424E+01
  2.30442183461E+01  2.32758165908E+01  2.35097424365E+01  2.37460192761E+01
  2.39846707374E+01  2.42257206858E+01  2.44691932264E+01  2.47151127068E+01
  2.49635037190E+01  2.52143911024E+01  2.54677999459E+01  2.57237555906E+01
  2.59822836323E+01  2.62434099240E+01  2.65071605786E+01  2.67735619714E+01
  2.70426407426E+01  2.73144238005E+01  2.75889383235E+01  2.78662117633E+01
  2.81462718475E+01  2.84291465824E+01  2.87148642556E+01  2.90034534392E+01
  2.92949429923E+01  2.95893620640E+01  2.98867400967E+01  3.01871068283E+01
  3.04904922957E+01  3.07969268377E+01  3.11064410981E+01  3.14190660286E+01
  3.17348328918E+01  3.20537732647E+01  3.23759190417E+01  3.27013024376E+01
  3.30299559910E+01  3.33619125675E+01  3.36972053630E+01  3.40358679072E+01
  3.43779340665E+01  3.47234380479E+01  3.50724144020E+01  3.54248980268E+01
  3.57809241709E+01  3.61405284372E+01  3.65037467865E+01  3.68706155409E+01
  3.72411713876E+01  3.76154513825E+01  3.79934929538E+01  3.83753339061E+01
  3.87610124238E+01  3.91505670750E+01  3.95440368155E+01  3.99414609927E+01
  4.03428793493E+01  4.07483320274E+01  4.11578595727E+01  4.15715029382E+01
  4.19893034887E+01  4.24113030045E+01  4.28375436859E+01  4.32680681574E+01
  4.37029194718E+01  4.41421411146E+01  4.45857770083E+01  4.50338715168E+01
  4.54864694500E+01  4.59436160680E+01  4.64053570859E+01  4.68717386782E+01
  4.73428074835E+01  4.78186106089E+01  4.82991956353E+01  4.87846106214E+01
  4.92749041093E+01  4.97701251287E+01  5.02703232020E+01  5.07755483496E+01
  5.12858510943E+01  5.18012824668E+01  5.23218940108E+01  5.28477377878E+01
  5.33788663826E+01  5.39153329085E+01  5.44571910126E+01  5.50044948812E+01
  5.55572992451E+01  5.61156593853E+01  5.66796311382E+01  5.72492709014E+01
  5.78246356394E+01  5.84057828891E+01  5.89927707658E+01  5.95856579688E+01
  6.01845037872E+01
  </PP_R>
  <PP_RAB>
  3.35462627903E-07  3.38834083363E-07  3.42239422515E-07  3.45678985894E-07
  3.49153117460E-07  3.52662164628E-07  3.56206478307E-07  3.59786412930E-07
  3.63402326495E-07  3.67054580595E-07  3.70743540459E-07  3.74469574986E-07
  3.78233056783E-07  3.82034362200E-07  3.85873871372E-07  3.89751968253E-07
  3.93669040655E-07  3.97625480290E-07  4.01621682803E-07  4.05658047820E-07
  4.09734978980E-07  4.13852883979E-07  4.18012174611E-07  4.22213266809E-07
  4.26456580686E-07  4.30742540576E-07  4.35071575079E-07  4.39444117102E-07
  4.43860603903E-07  4.48321477134E-07  4.52827182887E-07  4.57378171735E-07
  4.61974898782E-07  4.66617823703E-07  4.71307410796E-07  4.76044129022E-07
  4.80828452058E-07  4.85660858340E-07  4.90541831113E-07  4.95471858477E-07
  5.00451433441E-07  5.05481053964E-07  5.10561223014E-07  5.15692448612E-07
  5.20875243885E-07  5.26110127116E-07  5.31397621798E-07  5.36738256685E-07
  5.42132565846E-07  5.47581088714E-07  5.53084370148E-07  5.58642960479E-07