<PP_INFO>
Generated using Vanderbilt code, version   7  3  2                              
Author: Yi Yao     Generation date:    0    0    0                              
Automatically converted from original format                                    
    0        The Pseudo was generated with a Non-Relativistic Calculation
nl pn  l   occ               Rcut            Rcut US             E pseu
3S  0  0  2.00      0.00000000000      0.00000000000      0.00000000000
3P  0  1  3.00      0.00000000000      0.00000000000      0.00000000000
</PP_INFO>


<PP_HEADER>
   0                   Version Number
   P                   Element
   NC                  Norm - Conserving pseudopotential
    F                  Nonlinear Core Correction
 SLA  PW   SCAN SCAN   SCAN Exchange-Correlation functional
    5.00000000000      Z valence
    0.00000000000      Total energy
    0.00000    0.00000 Suggested cutoff for wfc and rho
    0                  Max angular momentum component
 1481                  Number of points in mesh
    2    1             Number of Wavefunctions, Number of Projectors
 Wavefunctions         nl  l   occ
                       3S  0  2.00
                       3P  1  3.00
</PP_HEADER>


<PP_MESH>
  <PP_R>
  2.23641751935E-05  2.25889388909E-05  2.28159615010E-05  2.30452657263E-05
  2.32768744973E-05  2.35108109752E-05  2.37470985538E-05  2.39857608620E-05
  2.42268217663E-05  2.44703053730E-05  2.47162360306E-05  2.49646383324E-05
  2.52155371188E-05  2.54689574800E-05  2.57249247581E-05  2.59834645502E-05
  2.62446027103E-05  2.65083653526E-05  2.67747788536E-05  2.70438698547E-05
  2.73156652653E-05  2.75901922653E-05  2.78674783074E-05  2.81475511206E-05
  2.84304387124E-05  2.87161693717E-05  2.90047716719E-05  2.92962744735E-05
  2.95907069269E-05  2.98880984756E-05  3.01884788591E-05  3.04918781157E-05
  3.07983265854E-05  3.11078549135E-05  3.14204940531E-05  3.17362752682E-05
  3.20552301372E-05  3.23773905560E-05  3.27027887409E-05  3.30314572318E-05
  3.33634288960E-05  3.36987369309E-05  3.40374148676E-05  3.43794965742E-05
  3.47250162590E-05  3.50740084744E-05  3.54265081199E-05  3.57825504457E-05
  3.61421710564E-05  3.65054059143E-05  3.68722913432E-05  3.72428640320E-05
  3.76171610382E-05  3.79952197918E-05  3.83770780992E-05  3.87627741463E-05
  3.91523465031E-05  3.95458341272E-05  3.99432763676E-05  4.03447129690E-05
  4.07501840753E-05  4.11597302340E-05  4.15733924000E-05  4.19912119398E-05
  4.24132306359E-05  4.28394906904E-05  4.32700347296E-05  4.37049058084E-05
  4.41441474142E-05  4.45878034715E-05  4.50359183463E-05  4.54885368504E-05
  4.59457042462E-05  4.64074662507E-05  4.68738690404E-05  4.73449592562E-05
  4.78207840073E-05  4.83013908767E-05  4.87868279254E-05  4.92771436975E-05
  4.97723872251E-05  5.02726080329E-05  5.07778561434E-05  5.12881820818E-05
  5.18036368812E-05  5.23242720874E-05  5.28501397644E-05  5.33812924995E-05
  5.39177834083E-05  5.44596661403E-05  5.50069948844E-05  5.55598243738E-05
  5.61182098919E-05  5.66822072778E-05  5.72518729316E-05  5.78272638205E-05
  5.84084374839E-05  5.89954520397E-05  5.95883661899E-05  6.01872392264E-05
  6.07921310370E-05  6.14031021113E-05  6.20202135470E-05  6.26435270557E-05
  6.32731049694E-05  6.39090102463E-05  6.45513064774E-05  6.52000578930E-05
  6.58553293687E-05  6.65171864323E-05  6.71856952699E-05  6.78609227330E-05
  6.85429363450E-05  6.92318043077E-05  6.99275955085E-05  7.06303795272E-05
  7.13402266426E-05  7.20572078402E-05  7.27813948186E-05  7.35128599972E-05
  7.42516765230E-05  7.49979182783E-05  7.57516598880E-05  7.65129767268E-05
  7.72819449270E-05  7.80586413861E-05  7.88431437744E-05  7.96355305427E-05
  8.04358809305E-05  8.12442749735E-05  8.20607935116E-05  8.28855181974E-05
  8.37185315042E-05  8.45599167338E-05  8.54097580256E-05  8.62681403644E-05
  8.71351495891E-05  8.80108724014E-05  8.88953963742E-05  8.97888099608E-05
  9.06912025032E-05  9.16026642414E-05  9.25232863224E-05  9.34531608091E-05
  9.43923806898E-05  9.53410398872E-05  9.62992332680E-05  9.72670566525E-05
  9.82446068236E-05  9.92319815373E-05  1.00229279532E-04  1.01236600538E-04
  1.02254045288E-04  1.03281715528E-04  1.04319714026E-04  1.05368144582E-04
  1.06427112041E-04  1.07496722299E-04  1.08577082319E-04  1.09668300138E-04
  1.10770484878E-04  1.11883746759E-04  1.13008197108E-04  1.14143948371E-04
  1.15291114124E-04  1.16449809084E-04  1.17620149122E-04  1.18802251273E-04
  1.19996233749E-04  1.21202215947E-04  1.22420318469E-04  1.23650663124E-04
  1.24893372948E-04  1.26148572214E-04  1.27416386442E-04  1.28696942415E-04
  1.29990368190E-04  1.31296793109E-04  1.32616347818E-04  1.33949164271E-04
  1.35295375753E-04  1.36655116885E-04  1.38028523643E-04  1.39415733368E-04
  1.40816884782E-04  1.42232118003E-04  1.43661574553E-04  1.45105397381E-04
  1.46563730870E-04  1.48036720853E-04  1.49524514632E-04  1.51027260988E-04
  1.52545110195E-04  1.54078214040E-04  1.55626725835E-04  1.57190800433E-04
  1.58770594241E-04  1.60366265241E-04  1.61977973002E-04  1.63605878694E-04
  1.65250145111E-04  1.66910936680E-04  1.68588419482E-04  1.70282761266E-04
  1.71994131468E-04  1.73722701227E-04  1.75468643401E-04  1.77232132585E-04
  1.79013345130E-04  1.80812459159E-04  1.82629654585E-04  1.84465113128E-04
  1.86319018336E-04  1.88191555601E-04  1.90082912179E-04  1.91993277206E-04
  1.93922841721E-04  1.95871798682E-04  1.97840342985E-04  1.99828671488E-04
  2.01836983025E-04  2.03865478428E-04  2.05914360549E-04  2.07983834278E-04
  2.10074106563E-04  2.12185386434E-04  2.14317885020E-04  2.16471815574E-04
  2.18647393490E-04  2.20844836327E-04  2.23064363831E-04  2.25306197958E-04
  2.27570562893E-04  2.29857685074E-04  2.32167793214E-04  2.34501118327E-04
  2.36857893748E-04  2.39238355155E-04  2.41642740598E-04  2.44071290515E-04
  2.46524247766E-04  2.49001857646E-04  2.51504367919E-04  2.54032028839E-04
  2.56585093174E-04  2.59163816232E-04  2.61768455887E-04  2.64399272606E-04
  2.67056529473E-04  2.69740492215E-04  2.72451429231E-04  2.75189611617E-04
  2.77955313194E-04  2.80748810533E-04  2.83570382988E-04  2.86420312717E-04
  2.89298884716E-04  2.92206386845E-04  2.95143109855E-04  2.98109347423E-04
  3.01105396174E-04  3.04131555716E-04  3.07188128666E-04  3.10275420686E-04
  3.13393740506E-04  3.16543399961E-04  3.19724714020E-04  3.22938000817E-04
  3.26183581683E-04  3.29461781179E-04  3.32772927127E-04  3.36117350646E-04
  3.39495386180E-04  3.42907371535E-04  3.46353647914E-04  3.49834559945E-04
  3.53350455725E-04  3.56901686844E-04  3.60488608429E-04  3.64111579176E-04
  3.67770961384E-04  3.71467120995E-04  3.75200427627E-04  3.78971254615E-04
  3.82779979044E-04  3.86626981789E-04  3.90512647556E-04  3.94437364912E-04
  3.98401526334E-04  4.02405528240E-04  4.06449771034E-04  4.10534659145E-04
  4.14660601063E-04  4.18828009387E-04  4.23037300861E-04  4.27288896417E-04
  4.31583221219E-04  4.35920704703E-04  4.40301780621E-04  4.44726887084E-04
  4.49196466606E-04  4.53710966149E-04  4.58270837166E-04  4.62876535650E-04
  4.67528522172E-04  4.72227261937E-04  4.76973224821E-04  4.81766885425E-04
  4.86608723119E-04  4.91499222091E-04  4.96438871395E-04  5.01428165000E-04
  5.06467601839E-04  5.11557685860E-04  5.16698926076E-04  5.21891836615E-04
  5.27136936773E-04  5.32434751064E-04  5.37785809273E-04  5.43190646512E-04
  5.48649803268E-04  5.54163825462E-04  5.59733264499E-04  5.65358677330E-04
  5.71040626500E-04  5.76779680208E-04  5.82576412365E-04  5.88431402648E-04
  5.94345236563E-04  6.00318505496E-04  6.06351806780E-04  6.12445743750E-04
  6.18600925804E-04  6.24817968467E-04  6.31097493447E-04  6.37440128703E-04
  6.43846508503E-04  6.50317273490E-04  6.56853070746E-04  6.63454553857E-04
  6.70122382976E-04  6.76857224891E-04  6.83659753094E-04  6.90530647841E-04
  6.97470596228E-04  7.04480292257E-04  7.11560436902E-04  7.18711738183E-04
  7.25934911237E-04  7.33230678387E-04  7.40599769216E-04  7.48042920639E-04
  7.55560876978E-04  7.63154390034E-04  7.70824219165E-04  7.78571131360E-04
  7.86395901317E-04  7.94299311519E-04  8.02282152315E-04  8.10345221994E-04
  8.18489326871E-04  8.26715281363E-04  8.35023908072E-04  8.43416037867E-04
  8.51892509969E-04  8.60454172032E-04  8.69101880229E-04  8.77836499339E-04
  8.86658902830E-04  8.95569972950E-04  9.04570600813E-04  9.13661686491E-04
  9.22844139099E-04  9.32118876889E-04  9.41486827344E-04  9.50948927267E-04
  9.60506122874E-04  9.70159369894E-04  9.79909633660E-04  9.89757889206E-04
  9.99705121365E-04  1.00975232487E-03  1.01990050445E-03  1.03015067493E-03
  1.04050386133E-03  1.05096109899E-03  1.06152343363E-03  1.07219192151E-03
  1.08296762946E-03  1.09385163509E-03  1.10484502678E-03  1.11594890391E-03
  1.12716437685E-03  1.13849256717E-03  1.14993460769E-03  1.16149164263E-03
  1.17316482771E-03  1.18495533024E-03  1.19686432930E-03  1.20889301579E-03
  1.22104259258E-03  1.23331427465E-03  1.24570928918E-03  1.25822887568E-03
  1.27087428611E-03  1.28364678503E-03  1.29654764969E-03  1.30957817020E-03
  1.32273964962E-03  1.33603340411E-03  1.34946076305E-03  1.36302306920E-03
  1.37672167878E-03  1.39055796168E-03  1.40453330154E-03  1.41864909589E-03
  1.43290675634E-03  1.44730770866E-03  1.46185339295E-03  1.47654526380E-03
  1.49138479041E-03  1.50637345674E-03  1.52151276167E-03  1.53680421915E-03
  1.55224935833E-03  1.56784972373E-03  1.58360687542E-03  1.59952238911E-03
  1.61559785638E-03  1.63183488478E-03  1.64823509802E-03  1.66480013615E-03
  1.68153165568E-03  1.69843132978E-03  1.71550084842E-03  1.73274191858E-03
  1.75015626438E-03  1.76774562726E-03  1.78551176618E-03  1.80345645776E-03
  1.82158149649E-03  1.83988869488E-03  1.85837988368E-03  1.87705691202E-03
  1.89592164761E-03  1.91497597695E-03  1.93422180548E-03  1.95366105780E-03
  1.97329567786E-03  1.99312762913E-03  2.01315889482E-03  2.03339147808E-03
  2.05382740218E-03  2.07446871074E-03  2.09531746789E-03  2.11637575854E-03
  2.13764568852E-03  2.15912938486E-03  2.18082899593E-03  2.20274669173E-03
  2.22488466402E-03  2.24724512664E-03  2.26983031564E-03  2.29264248956E-03
  2.31568392965E-03  2.33895694006E-03  2.36246384811E-03  2.38620700451E-03
  2.41018878360E-03  2.43441158358E-03  2.45887782675E-03  2.48358995975E-03
  2.50855045381E-03  2.53376180501E-03  2.55922653450E-03  2.58494718878E-03
  2.61092633993E-03  2.63716658589E-03  2.66367055071E-03  2.69044088480E-03
  2.71748026522E-03  2.74479139594E-03  2.77237700808E-03  2.80023986023E-03
  2.82838273870E-03  2.85680845780E-03  2.88551986013E-03  2.91451981685E-03
  2.94381122798E-03  2.97339702268E-03  3.00328015957E-03  3.03346362697E-03
  3.06395044327E-03  3.09474365716E-03  3.12584634800E-03  3.15726162608E-03
  3.18899263295E-03  3.22104254174E-03  3.25341455747E-03  3.28611191736E-03
  3.31913789119E-03  3.35249578157E-03  3.38618892433E-03  3.42022068879E-03
  3.45459447818E-03  3.48931372990E-03  3.52438191589E-03  3.55980254301E-03
  3.59557915336E-03  3.63171532461E-03  3.66821467043E-03  3.70508084077E-03
  3.74231752228E-03  3.77992843866E-03  3.81791735103E-03  3.85628805832E-03
  3.89504439763E-03  3.93419024463E-03  3.97372951393E-03  4.01366615949E-03
  4.05400417501E-03  4.09474759433E-03  4.13590049182E-03  4.17746698281E-03
  4.21945122398E-03  4.26185741378E-03  4.30468979288E-03  4.34795264454E-03
  4.39165029509E-03  4.43578711433E-03  4.48036751598E-03  4.52539595812E-03
  4.57087694362E-03  4.61681502062E-03  4.66321478298E-03  4.71008087070E-03
  4.75741797043E-03  4.80523081592E-03  4.85352418850E-03  4.90230291754E-03
  4.95157188096E-03  5.00133600569E-03  5.05160026819E-03  5.10236969493E-03
  5.15364936289E-03  5.20544440008E-03  5.25775998604E-03  5.31060135239E-03
  5.36397378330E-03  5.41788261606E-03  5.47233324159E-03  5.52733110501E-03
  5.58288170615E-03  5.63899060010E-03  5.69566339782E-03  5.75290576662E-03
  5.81072343080E-03  5.86912217216E-03  5.92810783063E-03  5.98768630482E-03
  6.04786355263E-03  6.10864559183E-03  6.17003850069E-03  6.23204841854E-03
  6.29468154642E-03  6.35794414770E-03  6.42184254870E-03  6.48638313930E-03
  6.55157237362E-03  6.61741677064E-03  6.68392291485E-03  6.75109745693E-03
  6.81894711437E-03  6.88747867221E-03  6.95669898365E-03  7.02661497079E-03
  7.09723362528E-03  7.16856200905E-03  7.24060725500E-03  7.31337656770E-03
  7.38687722416E-03  7.46111657449E-03  7.53610204270E-03  7.61184112739E-03
  7.68834140254E-03  7.76561051823E-03  7.84365620145E-03  7.92248625683E-03
  8.00210856743E-03  8.08253109556E-03  8.16376188353E-03  8.24580905450E-03
  8.32868081324E-03  8.41238544700E-03  8.49693132632E-03  8.58232690585E-03
  8.66858072523E-03  8.75570140990E-03  8.84369767201E-03  8.93257831125E-03
  9.02235221577E-03  9.11302836303E-03  9.20461582073E-03  9.29712374767E-03
  9.39056139474E-03  9.48493810577E-03  9.58026331851E-03  9.67654656557E-03
  9.77379747536E-03  9.87202577303E-03  9.97124128151E-03  1.00714539224E-02
  1.01726737171E-02  1.02749107877E-02  1.03781753579E-02  1.04824777542E-02
  1.05878284071E-02  1.06942378517E-02  1.08017167289E-02  1.09102757868E-02
  1.10199258814E-02  1.11306779778E-02  1.12425431512E-02  1.13555325884E-02
  1.14696575882E-02  1.15849295634E-02  1.17013600411E-02  1.18189606647E-02
  1.19377431941E-02  1.20577195078E-02  1.21789016035E-02  1.23013015995E-02
  1.24249317360E-02  1.25498043759E-02  1.26759320068E-02  1.28033272414E-02
  1.29320028194E-02  1.30619716085E-02  1.31932466056E-02  1.33258409383E-02
  1.34597678663E-02  1.35950407823E-02  1.37316732137E-02  1.38696788238E-02
  1.40090714134E-02  1.41498649218E-02  1.42920734285E-02  1.44357111544E-02
  1.45807924635E-02  1.47273318640E-02  1.48753440099E-02  1.50248437026E-02
  1.51758458923E-02  1.53283656791E-02  1.54824183153E-02  1.56380192063E-02
  1.57951839121E-02  1.59539281496E-02  1.61142677931E-02  1.62762188769E-02
  1.64397975961E-02  1.66050203088E-02  1.67719035373E-02  1.69404639702E-02
  1.71107184636E-02  1.72826840431E-02  1.74563779054E-02  1.76318174200E-02
  1.78090201311E-02  1.79880037590E-02  1.81687862023E-02  1.83513855393E-02
  1.85358200302E-02  1.87221081186E-02  1.89102684333E-02  1.91003197907E-02
  1.92922811959E-02  1.94861718454E-02  1.96820111283E-02  1.98798186287E-02
  2.00796141275E-02  2.02814176044E-02  2.04852492401E-02  2.06911294177E-02
  2.08990787255E-02  2.11091179586E-02  2.13212681211E-02  2.15355504282E-02
  2.17519863082E-02  2.19705974050E-02  2.21914055799E-02  2.24144329138E-02
  2.26397017097E-02  2.28672344946E-02  2.30970540220E-02  2.33291832741E-02
  2.35636454639E-02  2.38004640379E-02  2.40396626782E-02  2.42812653048E-02
  2.45252960781E-02  2.47717794015E-02  2.50207399234E-02  2.52722025402E-02
  2.55261923983E-02  2.57827348970E-02  2.60418556906E-02  2.63035806914E-02
  2.65679360723E-02  2.68349482689E-02  2.71046439827E-02  2.73770501835E-02
  2.76521941121E-02  2.79301032832E-02  2.82108054878E-02  2.84943287966E-02
  2.87807015619E-02  2.90699524214E-02  2.93621103004E-02  2.96572044149E-02
  2.99552642745E-02  3.02563196855E-02  3.05604007537E-02  3.08675378874E-02
  3.11777618007E-02  3.14911035161E-02  3.18075943681E-02  3.21272660060E-02
  3.24501503973E-02  3.27762798307E-02  3.31056869194E-02  3.34384046044E-02
  3.37744661577E-02  3.41139051858E-02  3.44567556328E-02  3.48030517841E-02
  3.51528282695E-02  3.55061200671E-02  3.58629625063E-02  3.62233912716E-02
  3.65874424063E-02  3.69551523156E-02  3.73265577710E-02  3.77016959133E-02
  3.80806042566E-02  3.84633206920E-02  3.88498834916E-02  3.92403313119E-02
  3.96347031980E-02  4.00330385875E-02  4.04353773142E-02  4.08417596123E-02
  4.12522261204E-02  4.16668178855E-02  4.20855763671E-02  4.25085434415E-02
  4.29357614055E-02  4.33672729816E-02  4.38031213210E-02  4.42433500091E-02
  4.46880030690E-02  4.51371249665E-02  4.55907606142E-02  4.60489553758E-02
  4.65117550714E-02  4.69792059812E-02  4.74513548508E-02  4.79282488955E-02
  4.84099358049E-02  4.88964637483E-02  4.93878813788E-02  4.98842378386E-02
  5.03855827637E-02  5.08919662891E-02  5.14034390536E-02  5.19200522048E-02
  5.24418574044E-02  5.29689068336E-02  5.35012531975E-02  5.40389497313E-02
  5.45820502052E-02  5.51306089296E-02  5.56846807608E-02  5.62443211064E-02
  5.68095859311E-02  5.73805317617E-02  5.79572156933E-02  5.85396953947E-02
  5.91280291145E-02  5.97222756864E-02  6.03224945357E-02  6.09287456847E-02
  6.15410897591E-02  6.21595879937E-02  6.27843022389E-02  6.34152949667E-02
  6.40526292768E-02  6.46963689032E-02  6.53465782205E-02  6.60033222499E-02
  6.66666666667E-02  6.73366778056E-02  6.80134226685E-02  6.86969689302E-02
  6.93873849462E-02  7.00847397584E-02  7.07891031030E-02  7.15005454169E-02
  7.22191378450E-02  7.29449522470E-02  7.36780612050E-02  7.44185380306E-02
  7.51664567720E-02  7.59218922216E-02  7.66849199238E-02  7.74556161819E-02
  7.82340580661E-02  7.90203234214E-02  7.98144908748E-02  8.06166398438E-02
  8.14268505440E-02  8.22452039971E-02  8.30717820392E-02  8.39066673286E-02
  8.47499433548E-02  8.56016944458E-02  8.64620057777E-02  8.73309633822E-02
  8.82086541558E-02  8.90951658684E-02  8.99905871717E-02  9.08950076088E-02
  9.18085176224E-02  9.27312085643E-02  9.36631727042E-02  9.46045032396E-02
  9.55552943040E-02  9.65156409776E-02  9.74856392956E-02  9.84653862588E-02
  9.94549798428E-02  1.00454519008E-01  1.01464103708E-01  1.02483834903E-01
  1.03513814567E-01  1.04554145699E-01  1.05604932333E-01  1.06666279548E-01
  1.07738293480E-01  1.08821081330E-01  1.09914751380E-01  1.11019412996E-01
  1.12135176647E-01  1.13262153908E-01  1.14400457479E-01  1.15550201191E-01
  1.16711500020E-01  1.17884470096E-01  1.19069228717E-01  1.20265894360E-01
  1.21474586693E-01  1.22695426585E-01  1.23928536123E-01  1.25174038618E-01
  1.26432058620E-01  1.27702721934E-01  1.28986155627E-01  1.30282488042E-01
  1.31591848815E-01  1.32914368883E-01  1.34250180498E-01  1.35599417243E-01
  1.36962214043E-01  1.38338707178E-01  1.39729034300E-01  1.41133334441E-01
  1.42551748033E-01  1.43984416919E-01  1.45431484367E-01  1.46893095084E-01
  1.48369395233E-01  1.49860532445E-01  1.51366655835E-01  1.52887916018E-01
  1.54424465119E-01  1.55976456795E-01  1.57544046247E-01  1.59127390235E-01
  1.60726647094E-01  1.62341976753E-01  1.63973540744E-01  1.65621502226E-01
  1.67286025996E-01  1.68967278508E-01  1.70665427889E-01  1.72380643954E-01
  1.74113098228E-01  1.75862963957E-01  1.77630416129E-01  1.79415631490E-01
  1.81218788564E-01  1.83040067668E-01  1.84879650931E-01  1.86737722313E-01
  1.88614467623E-01  1.90510074538E-01  1.92424732618E-01  1.94358633332E-01
  1.96311970071E-01  1.98284938171E-01  2.00277734930E-01  2.02290559629E-01
  2.04323613553E-01  2.06377100008E-01  2.08451224346E-01  2.10546193979E-01
  2.12662218408E-01  2.14799509235E-01  2.16958280193E-01  2.19138747159E-01
  2.21341128182E-01  2.23565643503E-01  2.25812515575E-01  2.28081969086E-01
  2.30374230984E-01  2.32689530497E-01  2.35028099158E-01  2.37390170824E-01
  2.39775981705E-01  2.42185770384E-01  2.44619777841E-01  2.47078247481E-01
  2.49561425151E-01  2.52069559171E-01  2.54602900358E-01  2.57161702046E-01
  2.59746220120E-01  2.62356713031E-01  2.64993441833E-01  2.67656670200E-01
  2.70346664456E-01  2.73063693605E-01  2.75808029350E-01  2.78579946128E-01
  2.81379721133E-01  2.84207634345E-01  2.87063968556E-01  2.89949009404E-01
  2.92863045395E-01  2.95806367934E-01  2.98779271356E-01  3.01782052954E-01
  3.04815013009E-01  3.07878454820E-01  3.10972684733E-01  3.14098012173E-01
  3.17254749676E-01  3.20443212918E-01  3.23663720749E-01  3.26916595222E-01
  3.30202161626E-01  3.33520748522E-01  3.36872687771E-01  3.40258314569E-01
  3.43677967482E-01  3.47131988479E-01  3.50620722963E-01  3.54144519812E-01
  3.57703731408E-01  3.61298713675E-01  3.64929826115E-01  3.68597431842E-01
  3.72301897618E-01  3.76043593895E-01  3.79822894845E-01  3.83640178400E-01
  3.87495826294E-01  3.91390224092E-01  3.95323761239E-01  3.99296831092E-01
  4.03309830961E-01  4.07363162149E-01  4.11457229992E-01  4.15592443902E-01
  4.19769217402E-01  4.23987968173E-01  4.28249118095E-01  4.32553093286E-01
  4.36900324146E-01  4.41291245403E-01  4.45726296152E-01  4.50205919902E-01
  4.54730564619E-01  4.59300682772E-01  4.63916731376E-01  4.68579172039E-01
  4.73288471010E-01  4.78045099223E-01  4.82849532344E-01  4.87702250821E-01
  4.92603739929E-01  4.97554489821E-01  5.02554995577E-01  5.07605757252E-01
  5.12707279925E-01  5.17860073754E-01  5.23064654021E-01  5.28321541190E-01
  5.33631260953E-01  5.38994344287E-01  5.44411327505E-01  5.49882752308E-01
  5.55409165846E-01  5.60991120763E-01  5.66629175259E-01  5.72323893145E-01
  5.78075843898E-01  5.83885602716E-01  5.89753750581E-01  5.95680874313E-01
  6.01667566629E-01  6.07714426203E-01  6.13822057725E-01  6.19991071966E-01
  6.26222085830E-01  6.32515722424E-01  6.38872611118E-01  6.45293387605E-01
  6.51778693969E-01  6.58329178745E-01  6.64945496988E-01  6.71628310334E-01
  6.78378287072E-01  6.85196102203E-01  6.92082437515E-01  6.99037981649E-01
  7.06063430162E-01  7.13159485607E-01  7.20326857595E-01  7.27566262869E-01
  7.34878425376E-01  7.42264076338E-01  7.49723954325E-01  7.57258805333E-01
  7.64869382853E-01  7.72556447948E-01  7.80320769332E-01  7.88163123443E-01
  7.96084294523E-01  8.04085074696E-01  8.12166264047E-01  8.20328670701E-01
  8.28573110905E-01  8.36900409111E-01  8.45311398056E-01  8.53806918844E-01
  8.62387821036E-01  8.71054962729E-01  8.79809210644E-01  8.88651440213E-01
  8.97582535667E-01  9.06603390122E-01  9.15714905672E-01  9.24917993475E-01
  9.34213573849E-01  9.43602576358E-01  9.53085939912E-01  9.62664612854E-01
  9.72339553059E-01  9.82111728030E-01  9.91982114992E-01  1.00195170099E+00
  1.01202148300E+00  1.02219246799E+00  1.03246567309E+00  1.04284212561E+00
  1.05332286322E+00  1.06390893399E+00  1.07460139654E+00  1.08540132012E+00
  1.09630978474E+00  1.10732788125E+00  1.11845671148E+00  1.12969738830E+00
  1.14105103581E+00  1.15251878937E+00  1.16410179577E+00  1.17580121332E+00
  1.18761821197E+00  1.19955397344E+00  1.21160969130E+00  1.22378657113E+00
  1.23608583065E+00  1.24850869978E+00  1.26105642082E+00  1.27373024855E+00
  1.28653145037E+00  1.29946130640E+00  1.31252110965E+00  1.32571216610E+00
  1.33903579488E+00  1.35249332835E+00  1.36608611228E+00  1.37981550596E+00
  1.39368288234E+00  1.40768962817E+00  1.42183714414E+00  1.43612684500E+00
  1.45056015975E+00  1.46513853172E+00  1.47986341876E+00  1.49473629338E+00
  1.50975864288E+00  1.52493196950E+00  1.54025779058E+00  1.55573763873E+00
  1.57137306194E+00  1.58716562376E+00  1.60311690347E+00  1.61922849621E+00
  1.63550201314E+00  1.65193908164E+00  1.66854134542E+00  1.68531046473E+00
  1.70224811649E+00  1.71935599448E+00  1.73663580950E+00  1.75408928955E+00
  1.77171817999E+00  1.78952424373E+00  1.80750926138E+00  1.82567503146E+00
  1.84402337057E+00  1.86255611355E+00  1.88127511369E+00  1.90018224292E+00
  1.91927939195E+00  1.93856847052E+00  1.95805140755E+00  1.97773015136E+00
  1.99760666983E+00  2.01768295063E+00  2.03796100140E+00  2.05844284998E+00
  2.07913054455E+00  2.10002615392E+00  2.12113176764E+00  2.14244949632E+00
  2.16398147172E+00  2.18572984708E+00  2.20769679725E+00  2.22988451893E+00
  2.25229523092E+00  2.27493117432E+00  2.29779461272E+00  2.32088783251E+00
  2.34421314301E+00  2.36777287678E+00  2.39156938980E+00  2.41560506177E+00
  2.43988229625E+00  2.46440352099E+00  2.48917118814E+00  2.51418777448E+00
  2.53945578169E+00  2.56497773660E+00  2.59075619142E+00  2.61679372402E+00
  2.64309293817E+00  2.66965646382E+00  2.69648695734E+00  2.72358710180E+00
  2.75095960724E+00  2.77860721094E+00  2.80653267767E+00  2.83473880000E+00
  2.86322839858E+00  2.89200432239E+00  2.92106944904E+00  2.95042668507E+00
  2.98007896622E+00  3.01002925775E+00  3.04028055472E+00  3.07083588228E+00
  3.10169829599E+00  3.13287088211E+00  3.16435675792E+00  3.19615907205E+00
  3.22828100476E+00  3.26072576825E+00  3.29349660704E+00  3.32659679823E+00
  3.36002965187E+00  3.39379851128E+00  3.42790675337E+00  3.46235778899E+00
  3.49715506327E+00  3.53230205598E+00  3.56780228183E+00  3.60365929089E+00
  3.63987666888E+00  3.67645803756E+00  3.71340705512E+00  3.75072741648E+00
  3.78842285370E+00  3.82649713636E+00  3.86495407193E+00  3.90379750613E+00
  3.94303132333E+00  3.98265944694E+00  4.02268583982E+00  4.06311450464E+00
  4.10394948430E+00  4.14519486232E+00  4.18685476328E+00  4.22893335321E+00
  4.27143484000E+00  4.31436347383E+00  4.35772354760E+00  4.40151939736E+00
  4.44575540273E+00  4.49043598734E+00  4.53556561929E+00  4.58114881159E+00
  4.62719012258E+00  4.67369415645E+00  4.72066556362E+00  4.76810904128E+00
  4.81602933382E+00  4.86443123331E+00  4.91331957997E+00  4.96269926269E+00
  5.01257521947E+00  5.06295243795E+00  5.11383595589E+00  5.16523086168E+00
  5.21714229487E+00  5.26957544664E+00  5.32253556034E+00  5.37602793203E+00
  5.43005791100E+00  5.48463090028E+00  5.53975235722E+00  5.59542779402E+00
  5.65166277826E+00  5.70846293348E+00  5.76583393976E+00  5.82378153423E+00
  5.88231151171E+00  5.94142972524E+00  6.00114208670E+00  6.06145456737E+00
  6.12237319854E+00  6.18390407214E+00  6.24605334130E+00  6.30882722099E+00
  6.37223198867E+00  6.43627398486E+00  6.50095961380E+00  6.56629534413E+00
  6.63228770946E+00  6.69894330909E+00  6.76626880864E+00  6.83427094070E+00
  6.90295650555E+00  6.97233237181E+00  7.04240547711E+00  7.11318282883E+00
  7.18467150476E+00  7.25687865383E+00  7.32981149681E+00  7.40347732705E+00
  7.47788351119E+00  7.55303748991E+00  7.62894677868E+00  7.70561896848E+00
  7.78306172660E+00  7.86128279738E+00  7.94029000299E+00  8.02009124421E+00
  8.10069450125E+00  8.18210783448E+00  8.26433938532E+00  8.34739737698E+00
  8.43129011534E+00  8.51602598974E+00  8.60161347383E+00  8.68806112643E+00
  8.77537759239E+00  8.86357160342E+00  8.95265197900E+00  9.04262762723E+00
  9.13350754576E+00  9.22530082266E+00  9.31801663733E+00  9.41166426143E+00
  9.50625305980E+00  9.60179249139E+00  9.69829211024E+00  9.79576156638E+00
  9.89421060684E+00  9.99364907660E+00  1.00940869196E+01  1.01955341797E+01
  1.02980010017E+01  1.04014976324E+01  1.05060344216E+01  1.06116218229E+01
  1.07182703952E+01  1.08259908036E+01  1.09347938200E+01  1.10446903249E+01
  1.11556913081E+01  1.12678078697E+01  1.13810512214E+01  1.14954326878E+01
  1.16109637070E+01  1.17276558323E+01  1.18455207329E+01  1.19645701955E+01
  1.20848161250E+01  1.22062705462E+01  1.23289456047E+01  1.24528535680E+01
  1.25780068270E+01  1.27044178972E+01  1.28320994198E+01  1.29610641630E+01
  1.30913250235E+01  1.32228950273E+01  1.33557873317E+01  1.34900152259E+01
  1.36255921329E+01  1.37625316104E+01  1.39008473526E+01  1.40405531911E+01
  1.41816630966E+01  1.43241911803E+01  1.44681516950E+01  1.46135590369E+01
  1.47604277469E+01  1.49087725120E+01  1.50586081668E+01  1.52099496949E+01
  1.53628122307E+01  1.55172110605E+01  1.56731616243E+01  1.58306795174E+01
  1.59897804916E+01  1.61504804572E+01  1.63127954843E+01  1.64767418045E+01
  1.66423358126E+01  1.68095940682E+01  1.69785332972E+01  1.71491703937E+01
  1.73215224215E+01  1.74956066160E+01  1.76714403857E+01  1.78490413142E+01
  1.80284271617E+01  1.82096158670E+01  1.83926255490E+01  1.85774745089E+01
  1.87641812317E+01  1.89527643883E+01  1.91432428371E+01  1.93356356261E+01
  1.95299619948E+01  1.97262413760E+01  1.99244933978E+01  2.01247378855E+01
  2.03269948638E+01  2.05312845585E+01  2.07376273988E+01  2.09460440190E+01
  2.11565552612E+01  2.13691821765E+01  2.15839460278E+01  2.18008682917E+01
  2.20199706606E+01  2.22412750450E+01  2.24648035753E+01  2.26905786048E+01
  2.29186227110E+01  2.31489586986E+01  2.33816096013E+01  2.36165986845E+01
  2.38539494473E+01  2.40936856248E+01  2.43358311910E+01  2.45804103606E+01
  2.48274475917E+01  2.50769675883E+01  2.53289953025E+01  2.55835559374E+01
  2.58406749492E+01  2.61003780500E+01  2.63626912104E+01  2.66276406618E+01
  2.68952528995E+01  2.71655546849E+01  2.74385730484E+01  2.77143352921E+01
  2.79928689924E+01  2.82742020030E+01  2.85583624573E+01  2.88453787716E+01
  2.91352796479E+01  2.94280940764E+01  2.97238513388E+01  3.00225810112E+01
  3.03243129666E+01  3.06290773787E+01  3.09369047240E+01  3.12478257855E+01
  3.15618716557E+01  3.18790737393E+01  3.21994637569E+01  3.25230737476E+01
  3.28499360729E+01  3.31800834191E+01  3.35135488013E+01  3.38503655664E+01
  3.41905673962E+01  3.45341883112E+01  3.48812626739E+01  3.52318251918E+01
  3.55859109217E+01  3.59435552723E+01  3.63047940084E+01  3.66696632541E+01
  3.70381994968E+01  3.74104395902E+01  3.77864207588E+01  3.81661806009E+01
  3.85497570929E+01  3.89371885928E+01  3.93285138439E+01  3.97237719792E+01
  4.01230025248E+01  4.05262454041E+01  4.09335409417E+01  4.13449298675E+01
  4.17604533208E+01  4.21801528542E+01  4.26040704380E+01  4.30322484643E+01
  4.34647297514E+01  4.39015575477E+01  4.43427755363E+01  4.47884278394E+01
  4.52385590226E+01  4.56932140995E+01  4.61524385358E+01  4.66162782544E+01
  4.70847796397E+01  4.75579895422E+01  4.80359552833E+01  4.85187246599E+01
  4.90063459495E+01  4.94988679144E+01  4.99963398075E+01  5.04988113761E+01
  5.10063328680E+01  5.15189550357E+01  5.20367291418E+01  5.25597069642E+01
  5.30879408011E+01  5.36214834763E+01  5.41603883445E+01  5.47047092967E+01
  5.52545007654E+01  5.58098177303E+01  5.63707157234E+01  5.69372508351E+01
  5.75094797193E+01  5.80874595994E+01  5.86712482739E+01  5.92609041220E+01
  5.98564861100E+01
  </PP_R>
  <PP_RAB>
  2.23641751935E-07  2.25889388909E-07  2.28159615010E-07  2.30452657263E-07
  2.32768744973E-07  2.35108109752E-07  2.37470985538E-07  2.39857608620E-07
  2.42268217663E-07  2.44703053730E-07  2.47162360306E-07  2.49646383324E-07