<PP_INFO>
Generated using Vanderbilt code, version   7  3  2                              
Author: Yi Yao    Generation date:    0    0    0                               
Automatically converted from original format                                    
    0        The Pseudo was generated with a Non-Relativistic Calculation
nl pn  l   occ               Rcut            Rcut US             E pseu
0S  0  0  2.00      0.00000000000      0.00000000000      0.00000000000
0P  0  1  4.00      0.00000000000      0.00000000000      0.00000000000
0D  0  2  0.00      0.00000000000      0.00000000000      0.00000000000
</PP_INFO>


<PP_HEADER>
   0                   Version Number
   S                   Element
   NC                  Norm - Conserving pseudopotential
    F                  Nonlinear Core Correction
 SLA  PW   SCAN SCAN   SCAN Exchange-Correlation functional
    6.00000000000      Z valence
    0.00000000000      Total energy
    0.00000    0.00000 Suggested cutoff for wfc and rho
    1                  Max angular momentum component
 1487                  Number of points in mesh
    3    2             Number of Wavefunctions, Number of Projectors
 Wavefunctions         nl  l   occ
                       0S  0  2.00
                       0P  1  4.00
                       0D  2  0.00
</PP_HEADER>


<PP_MESH>
  <PP_R>
  2.09664142439E-05  2.11771302102E-05  2.13899639072E-05  2.16049366184E-05
  2.18220698412E-05  2.20413852893E-05  2.22629048942E-05  2.24866508082E-05
  2.27126454059E-05  2.29409112872E-05  2.31714712787E-05  2.34043484366E-05
  2.36395660489E-05  2.38771476375E-05  2.41171169608E-05  2.43594980158E-05
  2.46043150409E-05  2.48515925181E-05  2.51013551752E-05  2.53536279888E-05
  2.56084361862E-05  2.58658052487E-05  2.61257609132E-05  2.63883291756E-05
  2.66535362929E-05  2.69214087860E-05  2.71919734424E-05  2.74652573189E-05
  2.77412877439E-05  2.80200923209E-05  2.83016989304E-05  2.85861357334E-05
  2.88734311739E-05  2.91636139814E-05  2.94567131747E-05  2.97527580639E-05
  3.00517782536E-05  3.03538036463E-05  3.06588644446E-05  3.09669911548E-05
  3.12782145900E-05  3.15925658728E-05  3.19100764384E-05  3.22307780383E-05
  3.25547027428E-05  3.28818829448E-05  3.32123513624E-05  3.35461410428E-05
  3.38832853654E-05  3.42238180446E-05  3.45677731342E-05  3.49151850300E-05
  3.52660884733E-05  3.56205185549E-05  3.59785107180E-05  3.63401007621E-05
  3.67053248466E-05  3.70742194942E-05  3.74468215946E-05  3.78231684084E-05
  3.82032975706E-05  3.85872470943E-05  3.89750553750E-05  3.93667611936E-05
  3.97624037212E-05  4.01620225222E-05  4.05656575590E-05  4.09733491954E-05
  4.13851382008E-05  4.18010657545E-05  4.22211734496E-05  4.26455032973E-05
  4.30740977308E-05  4.35069996100E-05  4.39442522254E-05  4.43858993027E-05
  4.48319850068E-05  4.52825539469E-05  4.57376511800E-05  4.61973222164E-05
  4.66616130235E-05  4.71305700308E-05  4.76042401344E-05  4.80826707017E-05
  4.85659095761E-05  4.90540050819E-05  4.95470060292E-05  5.00449617183E-05
  5.05479219453E-05  5.10559370066E-05  5.15690577041E-05  5.20873353504E-05
  5.26108217737E-05  5.31395693229E-05  5.36736308734E-05  5.42130598317E-05
  5.47579101411E-05  5.53082362872E-05  5.58640933031E-05  5.64255367748E-05
  5.69926228472E-05  5.75654082293E-05  5.81439502003E-05  5.87283066148E-05
  5.93185359088E-05  5.99146971059E-05  6.05168498226E-05  6.11250542747E-05
  6.17393712832E-05  6.23598622803E-05  6.29865893155E-05  6.36196150622E-05
  6.42590028234E-05  6.49048165385E-05  6.55571207892E-05  6.62159808067E-05
  6.68814624775E-05  6.75536323502E-05  6.82325576425E-05  6.89183062474E-05
  6.96109467403E-05  7.03105483859E-05  7.10171811450E-05  7.17309156813E-05
  7.24518233690E-05  7.31799762994E-05  7.39154472885E-05  7.46583098838E-05
  7.54086383724E-05  7.61665077876E-05  7.69319939171E-05  7.77051733101E-05
  7.84861232851E-05  7.92749219380E-05  8.00716481490E-05  8.08763815916E-05
  8.16892027398E-05  8.25101928763E-05  8.33394341008E-05  8.41770093382E-05
  8.50230023467E-05  8.58774977263E-05  8.67405809272E-05  8.76123382585E-05
  8.84928568967E-05  8.93822248942E-05  9.02805311888E-05  9.11878656117E-05
  9.21043188971E-05  9.30299826912E-05  9.39649495611E-05  9.49093130042E-05
  9.58631674578E-05  9.68266083079E-05  9.77997318996E-05  9.87826355460E-05
  9.97754175383E-05  1.00778177155E-04  1.01791014674E-04  1.02814031379E-04
  1.03847329573E-04  1.04891012587E-04  1.05945184789E-04  1.07009951598E-04
  1.08085419491E-04  1.09171696016E-04  1.10268889802E-04  1.11377110569E-04
  1.12496469139E-04  1.13627077451E-04  1.14769048564E-04  1.15922496678E-04
  1.17087537139E-04  1.18264286451E-04  1.19452862290E-04  1.20653383514E-04
  1.21865970178E-04  1.23090743540E-04  1.24327826079E-04  1.25577341504E-04
  1.26839414768E-04  1.28114172080E-04  1.29401740915E-04  1.30702250032E-04
  1.32015829483E-04  1.33342610627E-04  1.34682726144E-04  1.36036310045E-04
  1.37403497690E-04  1.38784425800E-04  1.40179232468E-04  1.41588057176E-04
  1.43011040808E-04  1.44448325663E-04  1.45900055471E-04  1.47366375406E-04
  1.48847432101E-04  1.50343373664E-04  1.51854349689E-04  1.53380511276E-04
  1.54922011042E-04  1.56479003138E-04  1.58051643264E-04  1.59640088687E-04
  1.61244498252E-04  1.62865032401E-04  1.64501853188E-04  1.66155124299E-04
  1.67825011060E-04  1.69511680462E-04  1.71215301173E-04  1.72936043557E-04
  1.74674079690E-04  1.76429583376E-04  1.78202730167E-04  1.79993697381E-04
  1.81802664113E-04  1.83629811264E-04  1.85475321549E-04  1.87339379520E-04
  1.89222171586E-04  1.91123886026E-04  1.93044713015E-04  1.94984844635E-04
  1.96944474903E-04  1.98923799782E-04  2.00923017207E-04  2.02942327101E-04
  2.04981931396E-04  2.07042034056E-04  2.09122841092E-04  2.11224560586E-04
  2.13347402712E-04  2.15491579756E-04  2.17657306138E-04  2.19844798432E-04
  2.22054275389E-04  2.24285957958E-04  2.26540069310E-04  2.28816834858E-04
  2.31116482280E-04  2.33439241543E-04  2.35785344925E-04  2.38155027037E-04
  2.40548524851E-04  2.42966077717E-04  2.45407927394E-04  2.47874318068E-04
  2.50365496381E-04  2.52881711451E-04  2.55423214904E-04  2.57990260891E-04
  2.60583106119E-04  2.63202009875E-04  2.65847234051E-04  2.68519043172E-04
  2.71217704421E-04  2.73943487667E-04  2.76696665489E-04  2.79477513209E-04
  2.82286308913E-04  2.85123333483E-04  2.87988870625E-04  2.90883206893E-04
  2.93806631724E-04  2.96759437463E-04  2.99741919394E-04  3.02754375766E-04
  3.05797107827E-04  3.08870419855E-04  3.11974619182E-04  3.15110016231E-04
  3.18276924544E-04  3.21475660814E-04  3.24706544919E-04  3.27969899949E-04
  3.31266052242E-04  3.34595331416E-04  3.37958070403E-04  3.41354605478E-04
  3.44785276298E-04  3.48250425932E-04  3.51750400900E-04  3.55285551201E-04
  3.58856230353E-04  3.62462795428E-04  3.66105607083E-04  3.69785029605E-04
  3.73501430938E-04  3.77255182725E-04  3.81046660345E-04  3.84876242948E-04
  3.88744313496E-04  3.92651258800E-04  3.96597469557E-04  4.00583340391E-04
  4.04609269893E-04  4.08675660659E-04  4.12782919332E-04  4.16931456641E-04
  4.21121687443E-04  4.25354030764E-04  4.29628909844E-04  4.33946752172E-04
  4.38307989537E-04  4.42713058066E-04  4.47162398270E-04  4.51656455086E-04
  4.56195677924E-04  4.60780520711E-04  4.65411441933E-04  4.70088904687E-04
  4.74813376724E-04  4.79585330493E-04  4.84405243196E-04  4.89273596827E-04
  4.94190878225E-04  4.99157579122E-04  5.04174196194E-04  5.09241231105E-04
  5.14359190564E-04  5.19528586370E-04  5.24749935468E-04  5.30023759997E-04
  5.35350587344E-04  5.40730950195E-04  5.46165386592E-04  5.51654439983E-04
  5.57198659277E-04  5.62798598902E-04  5.68454818856E-04  5.74167884765E-04
  5.79938367942E-04  5.85766845438E-04  5.91653900107E-04  5.97600120659E-04
  6.03606101721E-04  6.09672443896E-04  6.15799753824E-04  6.21988644241E-04
  6.28239734040E-04  6.34553648336E-04  6.40931018525E-04  6.47372482351E-04
  6.53878683964E-04  6.60450273991E-04  6.67087909595E-04  6.73792254546E-04
  6.80563979285E-04  6.87403760988E-04  6.94312283640E-04  7.01290238099E-04
  7.08338322167E-04  7.15457240657E-04  7.22647705467E-04  7.29910435650E-04
  7.37246157484E-04  7.44655604549E-04  7.52139517795E-04  7.59698645620E-04
  7.67333743942E-04  7.75045576278E-04  7.82834913817E-04  7.90702535500E-04
  7.98649228096E-04  8.06675786280E-04  8.14783012715E-04  8.22971718130E-04
  8.31242721403E-04  8.39596849640E-04  8.48034938263E-04  8.56557831085E-04
  8.65166380405E-04  8.73861447084E-04  8.82643900635E-04  8.91514619312E-04
  9.00474490195E-04  9.09524409276E-04  9.18665281556E-04  9.27898021130E-04
  9.37223551280E-04  9.46642804565E-04  9.56156722920E-04  9.65766257744E-04
  9.75472369999E-04  9.85276030303E-04  9.95178219032E-04  1.00517992641E-03
  1.01528215262E-03  1.02548590789E-03  1.03579221261E-03  1.04620209741E-03
  1.05671660329E-03  1.06733678172E-03  1.07806369471E-03  1.08889841497E-03
  1.09984202598E-03  1.11089562210E-03  1.12206030872E-03  1.13333720230E-03
  1.14472743055E-03  1.15623213249E-03  1.16785245861E-03  1.17958957095E-03
  1.19144464323E-03  1.20341886096E-03  1.21551342159E-03  1.22772953457E-03
  1.24006842152E-03  1.25253131636E-03  1.26511946536E-03  1.27783412737E-03
  1.29067657386E-03  1.30364808908E-03  1.31674997019E-03  1.32998352740E-03
  1.34335008407E-03  1.35685097687E-03  1.37048755589E-03  1.38426118481E-03
  1.39817324101E-03  1.41222511570E-03  1.42641821407E-03  1.44075395545E-03
  1.45523377343E-03  1.46985911600E-03  1.48463144571E-03  1.49955223979E-03
  1.51462299036E-03  1.52984520448E-03  1.54522040440E-03  1.56075012764E-03
  1.57643592720E-03  1.59227937167E-03  1.60828204540E-03  1.62444554867E-03
  1.64077149786E-03  1.65726152556E-03  1.67391728079E-03  1.69074042915E-03
  1.70773265296E-03  1.72489565145E-03  1.74223114095E-03  1.75974085502E-03
  1.77742654464E-03  1.79528997839E-03  1.81333294264E-03  1.83155724169E-03
  1.84996469799E-03  1.86855715231E-03  1.88733646389E-03  1.90630451070E-03
  1.92546318955E-03  1.94481441632E-03  1.96436012615E-03  1.98410227363E-03
  2.00404283299E-03  2.02418379831E-03  2.04452718369E-03  2.06507502349E-03
  2.08582937252E-03  2.10679230622E-03  2.12796592091E-03  2.14935233397E-03
  2.17095368405E-03  2.19277213130E-03  2.21480985760E-03  2.23706906673E-03
  2.25955198463E-03  2.28226085961E-03  2.30519796258E-03  2.32836558726E-03
  2.35176605045E-03  2.37540169220E-03  2.39927487610E-03  2.42338798948E-03
  2.44774344369E-03  2.47234367427E-03  2.49719114129E-03  2.52228832950E-03
  2.54763774865E-03  2.57324193369E-03  2.59910344507E-03  2.62522486897E-03
  2.65160881753E-03  2.67825792919E-03  2.70517486887E-03  2.73236232830E-03
  2.75982302623E-03  2.78755970877E-03  2.81557514960E-03  2.84387215029E-03
  2.87245354057E-03  2.90132217859E-03  2.93048095125E-03  2.95993277445E-03
  2.98968059339E-03  3.01972738288E-03  3.05007614763E-03  3.08072992253E-03
  3.11169177299E-03  3.14296479522E-03  3.17455211656E-03  3.20645689574E-03
  3.23868232330E-03  3.27123162178E-03  3.30410804615E-03  3.33731488407E-03
  3.37085545627E-03  3.40473311682E-03  3.43895125353E-03  3.47351328822E-03
  3.50842267713E-03  3.54368291124E-03  3.57929751659E-03  3.61527005468E-03
  3.65160412278E-03  3.68830335434E-03  3.72537141931E-03  3.76281202452E-03
  3.80062891408E-03  3.83882586969E-03  3.87740671108E-03  3.91637529638E-03
  3.95573552248E-03  3.99549132542E-03  4.03564668082E-03  4.07620560426E-03
  4.11717215165E-03  4.15855041969E-03  4.20034454623E-03  4.24255871074E-03
  4.28519713464E-03  4.32826408183E-03  4.37176385904E-03  4.41570081628E-03
  4.46007934727E-03  4.50490388992E-03  4.55017892671E-03  4.59590898519E-03
  4.64209863840E-03  4.68875250533E-03  4.73587525143E-03  4.78347158899E-03
  4.83154627771E-03  4.88010412507E-03  4.92914998692E-03  4.97868876787E-03
  5.02872542185E-03  5.07926495256E-03  5.13031241399E-03  5.18187291095E-03
  5.23395159951E-03  5.28655368760E-03  5.33968443546E-03  5.39334915621E-03
  5.44755321637E-03  5.50230203640E-03  5.55760109121E-03  5.61345591077E-03
  5.66987208059E-03  5.72685524234E-03  5.78441109440E-03  5.84254539238E-03
  5.90126394977E-03  5.96057263847E-03  6.02047738941E-03  6.08098419310E-03
  6.14209910027E-03  6.20382822248E-03  6.26617773268E-03  6.32915386587E-03
  6.39276291972E-03  6.45701125519E-03  6.52190529717E-03  6.58745153512E-03
  6.65365652370E-03  6.72052688349E-03  6.78806930156E-03  6.85629053222E-03
  6.92519739765E-03  6.99479678858E-03  7.06509566503E-03  7.13610105693E-03
  7.20782006488E-03  7.28025986084E-03  7.35342768886E-03  7.42733086578E-03
  7.50197678197E-03  7.57737290209E-03  7.65352676581E-03  7.73044598859E-03
  7.80813826241E-03  7.88661135656E-03  7.96587311843E-03  8.04593147424E-03
  8.12679442990E-03  8.20847007178E-03  8.29096656751E-03  8.37429216680E-03
  8.45845520229E-03  8.54346409035E-03  8.62932733193E-03  8.71605351344E-03
  8.80365130757E-03  8.89212947416E-03  8.98149686111E-03  9.07176240523E-03
  9.16293513315E-03  9.25502416222E-03  9.34803870141E-03  9.44198805227E-03
  9.53688160981E-03  9.63272886345E-03  9.72953939800E-03  9.82732289460E-03
  9.92608913168E-03  1.00258479859E-02  1.01266094334E-02  1.02283835502E-02
  1.03311805138E-02  1.04350106042E-02  1.05398842043E-02  1.06458118016E-02
  1.07528039889E-02  1.08608714657E-02  1.09700250386E-02  1.10802756231E-02
  1.11916342445E-02  1.13041120386E-02  1.14177202533E-02  1.15324702496E-02
  1.16483735025E-02  1.17654416024E-02  1.18836862563E-02  1.20031192888E-02
  1.21237526432E-02  1.22455983829E-02  1.23686686927E-02  1.24929758797E-02
  1.26185323747E-02  1.27453507334E-02  1.28734436378E-02  1.30028238973E-02
  1.31335044500E-02  1.32654983642E-02  1.33988188392E-02  1.35334792073E-02
  1.36694929345E-02  1.38068736225E-02  1.39456350093E-02  1.40857909712E-02
  1.42273555240E-02  1.43703428242E-02  1.45147671706E-02  1.46606430059E-02
  1.48079849176E-02  1.49568076402E-02  1.51071260561E-02  1.52589551971E-02
  1.54123102464E-02  1.55672065395E-02  1.57236595662E-02  1.58816849721E-02
  1.60412985596E-02  1.62025162904E-02  1.63653542863E-02  1.65298288312E-02
  1.66959563729E-02  1.68637535240E-02  1.70332370646E-02  1.72044239431E-02
  1.73773312783E-02  1.75519763611E-02  1.77283766562E-02  1.79065498038E-02
  1.80865136212E-02  1.82682861051E-02  1.84518854328E-02  1.86373299644E-02
  1.88246382445E-02  1.90138290042E-02  1.92049211626E-02  1.93979338291E-02
  1.95928863052E-02  1.97897980862E-02  1.99886888635E-02  2.01895785264E-02
  2.03924871639E-02  2.05974350672E-02  2.08044427311E-02  2.10135308567E-02
  2.12247203528E-02  2.14380323387E-02  2.16534881456E-02  2.18711093194E-02
  2.20909176224E-02  2.23129350356E-02  2.25371837608E-02  2.27636862232E-02
  2.29924650732E-02  2.32235431889E-02  2.34569436782E-02  2.36926898815E-02
  2.39308053734E-02  2.41713139659E-02  2.44142397099E-02  2.46596068982E-02
  2.49074400678E-02  2.51577640021E-02  2.54106037338E-02  2.56659845470E-02
  2.59239319801E-02  2.61844718280E-02  2.64476301449E-02  2.67134332468E-02
  2.69819077143E-02  2.72530803951E-02  2.75269784066E-02  2.78036291389E-02
  2.80830602573E-02  2.83652997051E-02  2.86503757066E-02  2.89383167695E-02
  2.92291516881E-02  2.95229095463E-02  2.98196197201E-02  3.01193118806E-02
  3.04220159975E-02  3.07277623413E-02  3.10365814870E-02  3.13485043166E-02
  3.16635620228E-02  3.19817861117E-02  3.23032084057E-02  3.26278610476E-02
  3.29557765027E-02  3.32869875629E-02  3.36215273497E-02  3.39594293172E-02
  3.43007272559E-02  3.46454552959E-02  3.49936479103E-02  3.53453399187E-02
  3.57005664906E-02  3.60593631488E-02  3.64217657734E-02  3.67878106049E-02
  3.71575342481E-02  3.75309736758E-02  3.79081662320E-02  3.82891496365E-02
  3.86739619879E-02  3.90626417677E-02  3.94552278442E-02  3.98517594764E-02
  4.02522763177E-02  4.06568184202E-02  4.10654262384E-02  4.14781406335E-02
  4.18950028772E-02  4.23160546561E-02  4.27413380758E-02  4.31708956648E-02
  4.36047703794E-02  4.40430056074E-02  4.44856451727E-02  4.49327333395E-02
  4.53843148171E-02  4.58404347640E-02  4.63011387926E-02  4.67664729737E-02
  4.72364838410E-02  4.77112183961E-02  4.81907241127E-02  4.86750489420E-02
  4.91642413167E-02  4.96583501565E-02  5.01574248727E-02  5.06615153731E-02
  5.11706720674E-02  5.16849458715E-02  5.22043882132E-02  5.27290510373E-02
  5.32589868104E-02  5.37942485266E-02  5.43348897124E-02  5.48809644325E-02
  5.54325272948E-02  5.59896334560E-02  5.65523386272E-02  5.71206990795E-02
  5.76947716492E-02  5.82746137441E-02  5.88602833490E-02  5.94518390313E-02
  6.00493399470E-02  6.06528458468E-02  6.12624170817E-02  6.18781146093E-02
  6.25000000000E-02  6.31281354428E-02  6.37625837517E-02  6.44034083721E-02
  6.50506733870E-02  6.57044435235E-02  6.63647841591E-02  6.70317613284E-02
  6.77054417297E-02  6.83858927316E-02  6.90731823797E-02  6.97673794037E-02
  7.04685532237E-02  7.11767739578E-02  7.18921124286E-02  7.26146401705E-02
  7.33444294370E-02  7.40815532075E-02  7.48260851951E-02  7.55780998536E-02
  7.63376723850E-02  7.71048787473E-02  7.78797956617E-02  7.86625006206E-02
  7.94530718951E-02  8.02515885430E-02  8.10581304166E-02  8.18727781708E-02
  8.26956132711E-02  8.35267180016E-02  8.43661754735E-02  8.52140696333E-02
  8.60704852710E-02  8.69355080290E-02  8.78092244102E-02  8.86917217871E-02
  8.95830884100E-02  9.04834134165E-02  9.13927868396E-02  9.23112996177E-02
  9.32390436026E-02  9.41761115696E-02  9.51225972262E-02  9.60785952218E-02
  9.70442011570E-02  9.80195115931E-02  9.90046240622E-02  9.99996370761E-02
  1.01004650137E-01  1.02019763747E-01  1.03045079419E-01  1.04080699684E-01
  1.05126728106E-01  1.06183269289E-01  1.07250428887E-01  1.08328313617E-01
  1.09417031269E-01  1.10516690715E-01  1.11627401922E-01  1.12749275962E-01
  1.13882425024E-01  1.15026962424E-01  1.16183002615E-01  1.17350661204E-01
  1.18530054957E-01  1.19721301813E-01  1.20924520900E-01  1.22139832540E-01
  1.23367358264E-01  1.24607220828E-01  1.25859544217E-01  1.27124453665E-01
  1.28402075665E-01  1.29692537980E-01  1.30995969656E-01  1.32312501038E-01
  1.33642263781E-01  1.34985390862E-01  1.36342016594E-01  1.37712276641E-01
  1.39096308031E-01  1.40494249167E-01  1.41906239846E-01  1.43332421267E-01
  1.44772936049E-01  1.46227928245E-01  1.47697543357E-01  1.49181928345E-01
  1.50681231651E-01  1.52195603206E-01  1.53725194447E-01  1.55270158337E-01
  1.56830649371E-01  1.58406823601E-01  1.59998838646E-01  1.61606853707E-01
  1.63231029589E-01  1.64871528710E-01  1.66528515121E-01  1.68202154522E-01
  1.69892614279E-01  1.71600063439E-01  1.73324672748E-01  1.75066614669E-01
  1.76826063397E-01  1.78603194879E-01  1.80398186829E-01  1.82211218749E-01
  1.84042471942E-01  1.85892129535E-01  1.87760376497E-01  1.89647399652E-01
  1.91553387706E-01  1.93478531258E-01  1.95423022824E-01  1.97387056856E-01
  1.99370829757E-01  2.01374539908E-01  2.03398387681E-01  2.05442575461E-01
  2.07507307671E-01  2.09592790784E-01  2.11699233351E-01  2.13826846018E-01
  2.15975841548E-01  2.18146434841E-01  2.20338842960E-01  2.22553285147E-01
  2.24789982848E-01  2.27049159735E-01  2.29331041726E-01  2.31635857013E-01
  2.33963836079E-01  2.36315211723E-01  2.38690219085E-01  2.41089095669E-01
  2.43512081362E-01  2.45959418467E-01  2.48431351718E-01  2.50928128312E-01
  2.53449997928E-01  2.55997212754E-01  2.58570027516E-01  2.61168699495E-01
  2.63793488562E-01  2.66444657198E-01  2.69122470522E-01  2.71827196316E-01
  2.74559105057E-01  2.77318469938E-01  2.80105566896E-01  2.82920674645E-01
  2.85764074696E-01  2.88636051394E-01  2.91536891937E-01  2.94466886412E-01
  2.97426327821E-01  3.00415512111E-01  3.03434738202E-01  3.06484308020E-01
  3.09564526525E-01  3.12675701740E-01  3.15818144785E-01  3.18992169909E-01
  3.22198094515E-01  3.25436239199E-01  3.28706927778E-01  3.32010487324E-01
  3.35347248195E-01  3.38717544071E-01  3.42121711983E-01  3.45560092352E-01
  3.49033029017E-01  3.52540869277E-01  3.56083963917E-01  3.59662667250E-01
  3.63277337150E-01  3.66928335086E-01  3.70616026162E-01  3.74340779149E-01
  3.78102966526E-01  3.81902964514E-01  3.85741153118E-01  3.89617916158E-01
  3.93533641314E-01  3.97488720163E-01  4.01483548214E-01  4.05518524955E-01
  4.09594053887E-01  4.13710542565E-01  4.17868402642E-01  4.22068049908E-01
  4.26309904331E-01  4.30594390099E-01  4.34921935665E-01  4.39292973787E-01
  4.43707941572E-01  4.48167280522E-01  4.52671436573E-01  4.57220860144E-01
  4.61816006183E-01  4.66457334207E-01  4.71145308354E-01  4.75880397424E-01
  4.80663074930E-01  4.85493819144E-01  4.90373113145E-01  4.95301444866E-01
  5.00279307144E-01  5.05307197769E-01  5.10385619535E-01  5.15515080289E-01
  5.20696092980E-01  5.25929175715E-01  5.31214851805E-01  5.36553649824E-01
  5.41946103654E-01  5.47392752546E-01  5.52894141170E-01  5.58450819669E-01
  5.64063343715E-01  5.69732274565E-01  5.75458179118E-01  5.81241629968E-01
  5.87083205465E-01  5.92983489772E-01  5.98943072923E-01  6.04962550880E-01
  6.11042525596E-01  6.17183605073E-01  6.23386403426E-01  6.29651540938E-01
  6.35979644130E-01  6.42371345815E-01  6.48827285171E-01  6.55348107795E-01
  6.61934465777E-01  6.68587017757E-01  6.75306428996E-01  6.82093371440E-01
  6.88948523790E-01  6.95872571567E-01  7.02866207180E-01  7.09930130000E-01
  7.17065046425E-01  7.24271669951E-01  7.31550721249E-01  7.38902928228E-01
  7.46329026116E-01  7.53829757528E-01  7.61405872544E-01  7.69058128782E-01
  7.76787291474E-01  7.84594133542E-01  7.92479435677E-01  8.00443986416E-01
  8.08488582221E-01  8.16614027558E-01  8.24821134979E-01  8.33110725200E-01
  8.41483627188E-01  8.49940678239E-01  8.58482724067E-01  8.67110618883E-01
  8.75825225483E-01  8.84627415336E-01  8.93518068667E-01  9.02498074550E-01
  9.11568330993E-01  9.20729745028E-01  9.29983232805E-01  9.39329719680E-01
  9.48770140310E-01  9.58305438744E-01  9.67936568521E-01  9.77664492762E-01
  9.87490184266E-01  9.97414625612E-01  1.00743880925E+00  1.01756373761E+00
  1.02779042319E+00  1.03811988867E+00  1.04855316701E+00  1.05909130153E+00
  1.06973534607E+00  1.08048636504E+00  1.09134543354E+00  1.10231363749E+00
  1.11339207373E+00  1.12458185010E+00  1.13588408559E+00  1.14729991044E+00
  1.15883046623E+00  1.17047690604E+00  1.18224039452E+00  1.19412210801E+00
  1.20612323472E+00  1.21824497475E+00  1.23048854030E+00  1.24285515572E+00
  1.25534605770E+00  1.26796249533E+00  1.28070573026E+00  1.29357703684E+00
  1.30657770219E+00  1.31970902641E+00  1.33297232263E+00  1.34636891719E+00
  1.35990014976E+00  1.37356737349E+00  1.38737195509E+00  1.40131527505E+00
  1.41539872770E+00  1.42962372140E+00  1.44399167867E+00  1.45850403631E+00
  1.47316224557E+00  1.48796777228E+00  1.50292209700E+00  1.51802671519E+00
  1.53328313732E+00  1.54869288904E+00  1.56425751133E+00  1.57997856069E+00
  1.59585760921E+00  1.61189624482E+00  1.62809607141E+00  1.64445870895E+00
  1.66098579374E+00  1.67767897849E+00  1.69453993254E+00  1.71157034199E+00
  1.72877190991E+00  1.74614635645E+00  1.76369541909E+00  1.78142085274E+00
  1.79932442995E+00  1.81740794111E+00  1.83567319458E+00  1.85412201690E+00
  1.87275625296E+00  1.89157776621E+00  1.91058843882E+00  1.92979017185E+00
  1.94918488552E+00  1.96877451930E+00  1.98856103217E+00  2.00854640280E+00
  2.02873262974E+00  2.04912173164E+00  2.06971574742E+00  2.09051673650E+00
  2.11152677899E+00  2.13274797592E+00  2.15418244943E+00  2.17583234298E+00
  2.19769982157E+00  2.21978707198E+00  2.24209630294E+00  2.26462974540E+00
  2.28738965273E+00  2.31037830093E+00  2.33359798888E+00  2.35705103857E+00
  2.38073979534E+00  2.40466662806E+00  2.42883392946E+00  2.45324411627E+00
  2.47789962954E+00  2.50280293483E+00  2.52795652250E+00  2.55336290794E+00
  2.57902463179E+00  2.60494426025E+00  2.63112438531E+00  2.65756762500E+00
  2.68427662367E+00  2.71125405224E+00  2.73850260847E+00  2.76602501725E+00
  2.79382403083E+00  2.82190242914E+00  2.85026302005E+00  2.87890863964E+00
  2.90784215249E+00  2.93706645197E+00  2.96658446055E+00  2.99639913005E+00
  3.02651344196E+00  3.05693040773E+00  3.08765306910E+00  3.11868449834E+00
  3.15002779863E+00  3.18168610433E+00  3.21366258128E+00  3.24596042718E+00
  3.27858287182E+00  3.31153317748E+00  3.34481463922E+00  3.37843058521E+00
  3.41238437707E+00  3.44667941022E+00  3.48131911417E+00  3.51630695295E+00
  3.55164642534E+00  3.58734106534E+00  3.62339444243E+00  3.65981016199E+00
  3.69659186562E+00  3.73374323151E+00  3.77126797484E+00  3.80916984810E+00
  3.84745264153E+00  3.88612018342E+00  3.92517634058E+00  3.96462501863E+00
  4.00447016250E+00  4.04471575671E+00  4.08536582588E+00  4.12642443503E+00
  4.16789569006E+00  4.20978373813E+00  4.25209276809E+00  4.29482701087E+00
  4.33799073992E+00  4.38158827167E+00  4.42562396589E+00  4.47010222620E+00
  4.51502750046E+00  4.56040428123E+00  4.60623710622E+00  4.65253055877E+00
  4.69928926825E+00  4.74651791057E+00  4.79422120864E+00  4.84240393283E+00
  4.89107090144E+00  4.94022698122E+00  4.98987708782E+00  5.04002618628E+00
  5.09067929156E+00  5.14184146901E+00  5.19351783490E+00  5.24571355689E+00
  5.29843385461E+00  5.35168400014E+00  5.40546931852E+00  5.45979518834E+00
  5.51466704223E+00  5.57009036742E+00  5.62607070628E+00  5.68261365691E+00
  5.73972487363E+00  5.79741006763E+00  5.85567500747E+00  5.91452551968E+00
  5.97396748938E+00  6.03400686080E+00  6.09464963794E+00  6.15590188512E+00
  6.21776972762E+00  6.28025935227E+00  6.34337700810E+00  6.40712900691E+00
  6.47152172396E+00  6.53656159857E+00  6.60225513479E+00  6.66860890203E+00
  6.73562953571E+00  6.80332373796E+00  6.87169827826E+00  6.94075999411E+00
  7.01051579174E+00  7.08097264679E+00  7.15213760501E+00  7.22401778295E+00
  7.29662036869E+00  7.36995262254E+00  7.44402187780E+00  7.51883554145E+00
  7.59440109492E+00  7.67072609483E+00  7.74781817374E+00  7.82568504092E+00
  7.90433448313E+00  7.98377436538E+00  8.06401263171E+00  8.14505730603E+00
  8.22691649286E+00  8.30959837821E+00  8.39311123031E+00  8.47746340053E+00
  8.56266332415E+00  8.64871952125E+00  8.73564059750E+00  8.82343524509E+00
  8.91211224356E+00  9.00168046068E+00  9.09214885335E+00  9.18352646848E+00
  9.27582244391E+00  9.36904600932E+00  9.46320648713E+00  9.55831329348E+00
  9.65437593912E+00  9.75140403040E+00  9.84940727021E+00  9.94839545896E+00
  1.00483784955E+01  1.01493663783E+01  1.02513692062E+01  1.03543971796E+01
  1.04584606013E+01  1.05635698778E+01  1.06697355201E+01  1.07769681448E+01
  1.08852784753E+01  1.09946773428E+01  1.11051756871E+01  1.12167845582E+01
  1.13295151172E+01  1.14433786371E+01  1.15583865044E+01  1.16745502200E+01
  1.17918814004E+01  1.19103917787E+01  1.20300932061E+01  1.21509976528E+01
  1.22731172095E+01  1.23964640881E+01  1.25210506234E+01  1.26468892743E+01
  1.27739926246E+01  1.29023733848E+01  1.30320443931E+01  1.31630186167E+01
  1.32953091531E+01  1.34289292315E+01  1.35638922141E+01  1.37002115971E+01
  1.38379010128E+01  1.39769742300E+01  1.41174451564E+01  1.42593278390E+01
  1.44026364663E+01  1.45473853692E+01  1.46935890228E+01  1.48412620476E+01
  1.49904192109E+01  1.51410754286E+01  1.52932457665E+01  1.54469454417E+01
  1.56021898244E+01  1.57589944390E+01  1.59173749662E+01  1.60773472441E+01
  1.62389272702E+01  1.64021312025E+01  1.65669753616E+01  1.67334762321E+01
  1.69016504641E+01  1.70715148753E+01  1.72430864522E+01  1.74163823521E+01
  1.75914199047E+01  1.77682166140E+01  1.79467901598E+01  1.81271583995E+01
  1.83093393702E+01  1.84933512900E+01  1.86792125604E+01  1.88669417677E+01
  1.90565576848E+01  1.92480792736E+01  1.94415256863E+01  1.96369162679E+01
  1.98342705574E+01  2.00336082905E+01  2.02349494011E+01  2.04383140235E+01
  2.06437224944E+01  2.08511953547E+01  2.10607533519E+01  2.12724174420E+01
  2.14862087916E+01  2.17021487799E+01  2.19202590012E+01  2.21405612667E+01
  2.23630776068E+01  2.25878302733E+01  2.28148417416E+01  2.30441347131E+01
  2.32757321173E+01  2.35096571140E+01  2.37459330961E+01  2.39845836913E+01
  2.42256327649E+01  2.44691044219E+01  2.47150230097E+01  2.49634131204E+01
  2.52142995933E+01  2.54677075171E+01  2.57236622329E+01  2.59821893364E+01
  2.62433146804E+01  2.65070643778E+01  2.67734648037E+01  2.70425425984E+01
  2.73143246699E+01  2.75888381966E+01  2.78661106302E+01  2.81461696980E+01
  2.84290434062E+01  2.87147600425E+01  2.90033481787E+01  2.92948366739E+01
  2.95892546772E+01  2.98866316306E+01  3.01869972720E+01  3.04903816384E+01
  3.07968150683E+01  3.11063282054E+01  3.14189520013E+01  3.17347177185E+01
  3.20536569339E+01  3.23758015418E+01  3.27011837568E+01  3.30298361174E+01
  3.33617914891E+01  3.36970830678E+01  3.40357443829E+01  3.43778093008E+01
  3.47233120282E+01  3.50722871158E+01  3.54247694613E+01  3.57807943134E+01
  3.61403972746E+01  3.65036143057E+01  3.68704817287E+01  3.72410362305E+01
  3.76153148670E+01  3.79933550663E+01  3.83751946328E+01  3.87608717508E+01
  3.91504249882E+01  3.95438933008E+01  3.99413160356E+01  4.03427329353E+01
  4.07481841419E+01  4.11577102010E+01  4.15713520653E+01  4.19891510994E+01
  4.24111490837E+01  4.28373882182E+01  4.32679111273E+01  4.37027608635E+01
  4.41419809122E+01  4.45856151958E+01  4.50337080781E+01  4.54863043687E+01
  4.59434493276E+01  4.64051886698E+01  4.68715685695E+01  4.73426356651E+01
  4.78184370638E+01  4.82990203459E+01  4.87844335704E+01  4.92747252789E+01
  4.97699445010E+01  5.02701407590E+01  5.07753640730E+01  5.12856649657E+01
  5.18010944676E+01  5.23217041221E+01  5.28475459907E+01  5.33786726579E+01
  5.39151372368E+01  5.44569933744E+01  5.50042952567E+01  5.55570976144E+01
  5.61154557282E+01  5.66794254342E+01  5.72490631301E+01  5.78244257799E+01
  5.84055709206E+01  5.89925566670E+01  5.95854417182E+01
  </PP_R>
  <PP_RAB>